7
# CELL(abcABC):   14.00143    14.00143    14.00143    90.00000    90.00000    90.00000  Step:           0  Bead:       7 positions{angstrom}  cell{angstrom}
       O  5.72211e-01 -8.20992e-01 -3.40858e-01
       O  2.93099e+00 -1.00086e+00  3.45000e-02
       H  1.15544e-01 -1.32891e+00 -1.03000e+00
       H  1.75146e+00 -9.10942e-01 -1.52650e-01
       H  3.30479e+00 -1.55124e+00  7.40818e-01
       H  3.58125e+00 -5.33487e-01 -5.13365e-01
       H  5.91684e-03 -2.31237e-01  1.81684e-01
7
# CELL(abcABC):   14.00143    14.00143    14.00143    90.00000    90.00000    90.00000  Step:         400  Bead:       7 positions{angstrom}  cell{angstrom}
       O  5.92033e-01 -9.24126e-01 -5.95046e-02
       O  2.89166e+00 -9.25046e-01 -2.32473e-01
       H -1.63693e-02 -1.39245e+00 -6.87704e-01
       H  1.73631e+00 -8.50768e-01 -2.02953e-01
       H  3.42124e+00 -6.96991e-01  5.41748e-01
       H  3.39923e+00 -1.42698e+00 -9.17392e-01
       H  6.03705e-02 -1.90492e-01  2.87131e-01
7
# CELL(abcABC):   14.00143    14.00143    14.00143    90.00000    90.00000    90.00000  Step:         800  Bead:       7 positions{angstrom}  cell{angstrom}
       O  6.09080e-01 -1.15619e+00  1.13259e-01
       O  2.93517e+00 -6.48170e-01 -4.46867e-01
       H  9.74482e-03 -1.28866e+00 -6.11325e-01
       H  1.73802e+00 -1.12835e+00 -1.30702e-01
       H  3.32301e+00  2.14146e-01 -3.78012e-01
       H  3.47671e+00 -1.38567e+00 -6.21792e-01
       H  2.48963e-01 -1.35131e+00  1.00734e+00
7
# CELL(abcABC):   14.00143    14.00143    14.00143    90.00000    90.00000    90.00000  Step:        1200  Bead:       7 positions{angstrom}  cell{angstrom}
       O  6.26431e-01 -1.24028e+00  4.78101e-02
       O  2.93504e+00 -5.68645e-01 -3.84640e-01
       H  2.50523e-01 -1.62632e+00 -6.85735e-01
       H  1.62282e+00 -1.07039e+00  6.68774e-02
       H  3.38685e+00  1.00656e-01 -8.82170e-01
       H  3.58410e+00 -1.22000e+00 -9.86408e-02
       H -5.77327e-02 -1.17916e+00  7.42648e-01
7
# CELL(abcABC):   14.00143    14.00143    14.00143    90.00000    90.00000    90.00000  Step:        1600  Bead:       7 positions{angstrom}  cell{angstrom}
       O  6.83058e-01 -1.48055e+00 -2.07706e-01
       O  2.87905e+00 -3.44312e-01 -1.29813e-01
       H  2.96840e-01 -1.58348e+00 -1.02107e+00
       H  1.71813e+00 -9.90655e-01 -8.62255e-02
       H  2.79453e+00  6.55567e-01 -1.21911e-01
       H  3.57196e+00 -9.47728e-01 -4.53256e-01
       H -4.72587e-02 -1.32471e+00  4.37773e-01
7
# CELL(abcABC):   14.00143    14.00143    14.00143    90.00000    90.00000    90.00000  Step:        2000  Bead:       7 positions{angstrom}  cell{angstrom}
       O  7.14199e-01 -1.42101e+00 -6.23130e-01
       O  2.80162e+00 -4.42928e-01  3.54061e-01
       H  6.91994e-01 -1.94300e+00 -1.35486e+00
       H  1.76492e+00 -8.61544e-01 -2.18588e-01
       H  2.76281e+00 -9.82290e-02  1.25599e+00
       H  3.44745e+00  5.55077e-02 -2.05230e-01
       H -1.32522e-01 -1.35381e+00 -6.94925e-02
7
# CELL(abcABC):   14.00143    14.00143    14.00143    90.00000    90.00000    90.00000  Step:        2400  Bead:       7 positions{angstrom}  cell{angstrom}
       O  8.54462e-01 -1.18944e+00 -8.25049e-01
       O  2.73908e+00 -6.41140e-01  5.50372e-01
       H  8.81996e-01 -1.89746e+00 -1.47087e+00
       H  1.84487e+00 -7.71047e-01 -4.83670e-01
       H  2.34405e+00 -3.62027e-01  1.40849e+00
       H  3.35727e+00 -1.31567e+00  3.68355e-01
       H  1.83281e-02 -8.04413e-01 -7.01629e-01
7
# CELL(abcABC):   14.00143    14.00143    14.00143    90.00000    90.00000    90.00000  Step:        2800  Bead:       7 positions{angstrom}  cell{angstrom}
       O  8.66733e-01 -9.20261e-01 -8.99408e-01
       O  2.68541e+00 -9.61325e-01  5.91069e-01
       H  4.93858e-01 -1.10147e+00 -1.86181e+00
       H  1.80913e+00 -9.26043e-01 -4.79113e-01
       H  3.39213e+00 -3.06515e-01  6.37953e-01
       H  2.47176e+00 -1.00644e+00  1.60113e+00
       H  7.19140e-02 -8.43786e-01 -3.26941e-01
7
# CELL(abcABC):   14.00143    14.00143    14.00143    90.00000    90.00000    90.00000  Step:        3200  Bead:       7 positions{angstrom}  cell{angstrom}
       O  8.94460e-01 -1.01196e+00 -1.02255e+00
       O  2.63358e+00 -8.92405e-01  6.71227e-01
       H  1.00745e+00 -6.83332e-01 -1.88541e+00
       H  1.75889e+00 -1.09988e+00 -1.72012e-01
       H  2.65960e+00 -1.39416e+00  1.51927e+00
       H  3.14277e+00 -6.41102e-02  8.04341e-01
       H  6.04603e-02 -8.79379e-01 -5.67379e-01
7
# CELL(abcABC):   14.00143    14.00143    14.00143    90.00000    90.00000    90.00000  Step:        3600  Bead:       7 positions{angstrom}  cell{angstrom}
       O  8.51401e-01 -1.08900e+00 -9.02839e-01
       O  2.75653e+00 -7.45655e-01  5.93473e-01
       H  6.04035e-01 -4.52187e-01 -1.68214e+00
       H  2.04313e+00 -1.14175e+00 -8.14683e-03
       H  3.36535e+00 -1.25723e+00  1.18917e+00
       H  3.13087e+00  1.16958e-01  3.10499e-01
       H  1.30674e-01 -1.71704e+00 -9.25922e-01
7
# CELL(abcABC):   14.00143    14.00143    14.00143    90.00000    90.00000    90.00000  Step:        4000  Bead:       7 positions{angstrom}  cell{angstrom}
       O  9.08770e-01 -1.56732e+00 -8.32777e-01
       O  2.60583e+00 -2.83029e-01  5.01537e-01
       H  7.24055e-01 -7.59244e-01 -1.35871e+00
       H  1.99789e+00 -1.22821e+00 -5.73625e-02
       H  2.59018e+00 -2.41154e-01  1.44126e+00
       H  2.88973e+00  6.66388e-01  3.16736e-01
       H  9.66955e-01 -2.62665e+00 -9.60045e-01
7
# CELL(abcABC):   14.00143    14.00143    14.00143    90.00000    90.00000    90.00000  Step:        4400  Bead:       7 positions{angstrom}  cell{angstrom}
       O  1.28377e+00 -1.84085e+00 -7.99476e-01
       O  2.21227e+00 -3.00032e-02  5.35070e-01
       H  1.16527e+00 -1.82238e+00 -1.80318e+00
       H  1.88280e+00 -8.18749e-01 -6.59077e-02
       H  2.64415e+00 -3.57393e-01  1.31717e+00
       H  2.27175e+00  8.92935e-01  1.53709e-01
       H  1.02838e+00 -2.53801e+00 -3.42570e-01
7
# CELL(abcABC):   14.00143    14.00143    14.00143    90.00000    90.00000    90.00000  Step:        4800  Bead:       7 positions{angstrom}  cell{angstrom}
       O  1.24105e+00 -1.72213e+00 -8.70559e-01
       O  2.22519e+00 -9.85366e-02  6.63251e-01
       H  1.15582e+00 -1.37399e+00 -1.77658e+00
       H  2.07681e+00 -7.46123e-01 -3.13672e-01
       H  2.99016e+00  5.55587e-01  5.16772e-01
       H  2.27952e+00 -6.62392e-01  1.49927e+00
       H  6.51088e-01 -2.57531e+00 -7.52530e-01
7
# CELL(abcABC):   14.00143    14.00143    14.00143    90.00000    90.00000    90.00000  Step:        5200  Bead:       7 positions{angstrom}  cell{angstrom}
       O  1.01309e+00 -1.57912e+00 -8.67646e-01
       O  2.40464e+00 -1.78833e-01  6.21234e-01
       H  4.56490e-01 -1.64072e+00 -1.63618e+00
       H  1.68741e+00 -7.23977e-01 -1.88483e-01
       H  2.54245e+00  6.43034e-01  9.92609e-01
       H  3.38916e+00 -7.08901e-01  6.74605e-01
       H  6.22437e-01 -2.20677e+00 -3.88215e-01
7
# CELL(abcABC):   14.00143    14.00143    14.00143    90.00000    90.00000    90.00000  Step:        5600  Bead:       7 positions{angstrom}  cell{angstrom}
       O  1.03220e+00 -1.44073e+00 -8.81654e-01
       O  2.40611e+00 -3.66024e-01  6.20123e-01
       H  1.89170e-01 -1.16044e+00 -1.33209e+00
       H  1.66261e+00 -9.59347e-01  2.17537e-02
       H  2.07520e+00  3.07657e-01  1.24926e+00
       H  3.30613e+00 -7.60284e-02  3.98719e-01
       H  1.30176e+00 -2.38837e+00 -9.15463e-01
7
# CELL(abcABC):   14.00143    14.00143    14.00143    90.00000    90.00000    90.00000  Step:        6000  Bead:       7 positions{angstrom}  cell{angstrom}
       O  1.06954e+00 -1.42006e+00 -9.26099e-01
       O  2.40609e+00 -4.22016e-01  6.25031e-01
       H  7.30642e-01 -6.03812e-01 -1.37613e+00
       H  1.64122e+00 -9.28655e-01 -3.20120e-02
       H  3.01030e+00 -7.59444e-01  1.13899e+00
       H  2.79229e+00  4.26899e-01  4.83560e-01
       H  1.07070e+00 -2.20059e+00 -1.33555e+00
7
# CELL(abcABC):   14.00143    14.00143    14.00143    90.00000    90.00000    90.00000  Step:        6400  Bead:       7 positions{angstrom}  cell{angstrom}
       O  1.25107e+00 -1.70404e+00 -9.56792e-01
       O  2.20109e+00 -1.40633e-01  6.39967e-01
       H  1.72910e+00 -1.99563e+00 -2.07013e+00
       H  1.72372e+00 -8.87996e-01 -1.49184e-02
       H  2.79053e+00 -5.14097e-01  1.37343e+00
       H  2.40885e+00  7.15993e-01  4.02692e-01
       H  6.20542e-01 -2.33482e+00 -6.48809e-01
7
# CELL(abcABC):   14.00143    14.00143    14.00143    90.00000    90.00000    90.00000  Step:        6800  Bead:       7 positions{angstrom}  cell{angstrom}
       O  1.62030e+00 -2.02784e+00 -7.15274e-01
       O  1.88326e+00  1.34623e-01  4.11830e-01
       H  1.91469e+00 -2.87767e+00 -6.20092e-01
       H  1.51940e+00 -9.31497e-01 -1.04929e-01
       H  2.00634e+00  2.55612e-01  1.33693e+00
       H  1.92417e+00  9.17874e-01 -1.39410e-01
       H  9.80204e-01 -2.19341e+00 -1.40695e+00
7
# CELL(abcABC):   14.00143    14.00143    14.00143    90.00000    90.00000    90.00000  Step:        7200  Bead:       7 positions{angstrom}  cell{angstrom}
       O  1.61496e+00 -2.14447e+00 -4.25724e-01
       O  1.84280e+00  2.94353e-01  1.46104e-01
       H  1.94695e+00 -2.91751e+00  8.81766e-02
       H  1.84166e+00 -9.53797e-01 -2.29339e-01
       H  1.64040e+00  5.19787e-01  1.02984e+00
       H  2.36127e+00  9.60694e-01 -2.64148e-01
       H  1.01313e+00 -2.32873e+00 -1.12460e+00
7
# CELL(abcABC):   14.00143    14.00143    14.00143    90.00000    90.00000    90.00000  Step:        7600  Bead:       7 positions{angstrom}  cell{angstrom}
       O  1.90095e+00 -2.07705e+00 -2.40484e-01
       O  1.60234e+00  2.42582e-01 -8.41373e-02
       H  2.18886e+00 -2.43728e+00  5.84197e-01
       H  1.70542e+00 -8.40545e-01 -1.36367e-01
       H  1.18360e+00  7.71393e-01  6.65795e-01
       H  2.12846e+00  7.12936e-01 -7.98256e-01
       H  1.19475e+00 -2.60922e+00 -6.72166e-01
7
# CELL(abcABC):   14.00143    14.00143    14.00143    90.00000    90.00000    90.00000  Step:        8000  Bead:       7 positions{angstrom}  cell{angstrom}
       O  2.27603e+00 -1.98939e+00  7.89927e-02
       O  1.25084e+00  1.69405e-01 -4.06789e-01
       H  3.04590e+00 -1.57014e+00  4.58086e-01
       H  1.86108e+00 -9.29416e-01 -1.48324e-01
       H  1.65046e+00  1.07755e+00 -1.65796e-01
       H  3.08457e-01 -1.55637e-02 -9.10744e-01
       H  1.91070e+00 -2.93846e+00  1.46863e-01
7
# CELL(abcABC):   14.00143    14.00143    14.00143    90.00000    90.00000    90.00000  Step:        8400  Bead:       7 positions{angstrom}  cell{angstrom}
       O  2.47171e+00 -1.82533e+00  1.91385e-01
       O  1.00941e+00  8.56719e-03 -4.92008e-01
       H  3.20480e+00 -1.69082e+00  9.58038e-01
       H  1.83371e+00 -1.03465e+00 -1.47884e-01
       H  2.33620e-01 -1.11469e-01 -9.70928e-01
       H  1.02197e+00  6.35416e-01  2.61055e-01
       H  2.67275e+00 -2.57100e+00 -3.54638e-01
7
# CELL(abcABC):   14.00143    14.00143    14.00143    90.00000    90.00000    90.00000  Step:        8800  Bead:       7 positions{angstrom}  cell{angstrom}
       O  2.54023e+00 -1.67031e+00  4.33780e-01
       O  9.05305e-01 -1.88533e-01 -7.59738e-01
       H  3.06348e+00 -1.27216e+00  1.13564e+00
       H  1.55483e+00 -1.05645e+00 -8.34818e-03
       H  4.04522e-03 -5.10666e-01 -6.18025e-01
       H  1.13943e+00  7.04813e-01 -7.07134e-01
       H  2.82197e+00 -2.36040e+00 -2.10797e-01
7
# CELL(abcABC):   14.00143    14.00143    14.00143    90.00000    90.00000    90.00000  Step:        9200  Bead:       7 positions{angstrom}  cell{angstrom}
       O  2.47581e+00 -1.37002e+00  6.43172e-01
       O  9.28507e-01 -4.28899e-01 -9.22987e-01
       H  3.09954e+00 -1.14173e+00  1.29764e+00
       H  1.63519e+00 -6.21191e-01 -2.06297e-01
       H  4.78821e-01 -1.17229e+00 -1.24525e+00
       H  6.98143e-01  5.18106e-01 -1.19898e+00
       H  2.96866e+00 -2.23154e+00  5.03282e-01
7
# CELL(abcABC):   14.00143    14.00143    14.00143    90.00000    90.00000    90.00000  Step:        9600  Bead:       7 positions{angstrom}  cell{angstrom}
       O  2.51208e+00 -1.35880e+00  5.75098e-01
       O  9.62414e-01 -4.35950e-01 -9.31069e-01
       H  3.45151e+00 -1.07555e+00  7.07290e-01
       H  2.04058e+00 -8.72609e-01 -1.77163e-01
       H  2.64584e-01 -9.73947e-01 -1.32639e+00
       H  9.67961e-01  4.97217e-01 -1.01850e+00
       H  1.86256e+00 -1.74009e+00  1.22686e+00
7
# CELL(abcABC):   14.00143    14.00143    14.00143    90.00000    90.00000    90.00000  Step:       10000  Bead:       7 positions{angstrom}  cell{angstrom}
       O  2.49373e+00 -1.52110e+00  4.76376e-01
       O  9.45216e-01 -2.68181e-01 -8.39073e-01
       H  3.51852e+00 -1.73423e+00  1.22130e-01
       H  1.68966e+00 -7.88799e-01 -2.92540e-01
       H  3.02113e-01  2.15710e-01 -1.47559e-01
       H  1.07831e+00 -3.20027e-02 -1.74466e+00
       H  2.16481e+00 -1.40246e+00  1.49842e+00
7
# CELL(abcABC):   14.00143    14.00143    14.00143    90.00000    90.00000    90.00000  Step:       10400  Bead:       7 positions{angstrom}  cell{angstrom}
       O  2.32205e+00 -1.74806e+00  4.60664e-01
       O  1.16856e+00 -2.83533e-02 -7.64487e-01
       H  2.48208e+00 -2.72123e+00  1.29253e-01
       H  1.69250e+00 -9.37421e-01 -3.20518e-01
       H  1.18428e+00  9.07468e-01 -5.85899e-01
       H  8.01909e-01 -2.73253e-01 -1.68128e+00
       H  2.44883e+00 -1.54450e+00  1.40397e+00
7
# CELL(abcABC):   14.00143    14.00143    14.00143    90.00000    90.00000    90.00000  Step:       10800  Bead:       7 positions{angstrom}  cell{angstrom}
       O  2.14650e+00 -1.63488e+00  6.62622e-01
       O  1.33146e+00 -2.02617e-01 -9.92839e-01
       H  1.64904e+00 -2.50433e+00  5.43845e-01
       H  2.02169e+00 -6.84229e-01 -7.07905e-02
       H  5.65725e-01  2.30909e-01 -6.32122e-01
       H  1.92528e+00  1.96882e-01 -1.77707e+00
       H  2.97142e+00 -1.80323e+00  1.16152e+00
7
# CELL(abcABC):   14.00143    14.00143    14.00143    90.00000    90.00000    90.00000  Step:       11200  Bead:       7 positions{angstrom}  cell{angstrom}
       O  2.27746e+00 -1.62027e+00  7.09176e-01
       O  1.30389e+00 -3.13123e-01 -1.09704e+00
       H  1.53810e+00 -2.15794e+00  1.15747e+00
       H  1.80738e+00 -8.23378e-01 -2.32365e-01
       H  3.67126e-01 -6.04888e-01 -1.43024e+00
       H  1.44831e+00  7.06565e-01 -1.32896e+00
       H  2.87088e+00 -1.30225e+00  1.40604e+00
7
# CELL(abcABC):   14.00143    14.00143    14.00143    90.00000    90.00000    90.00000  Step:       11600  Bead:       7 positions{angstrom}  cell{angstrom}
       O  2.18877e+00 -1.53503e+00  8.52182e-01
       O  1.36919e+00 -3.00181e-01 -1.16681e+00
       H  1.44656e+00 -1.98013e+00  1.34504e+00
       H  1.82228e+00 -9.80251e-01 -1.65937e-01
       H  1.39813e+00 -2.11606e-01 -2.21282e+00
       H  3.68000e-01  5.86934e-02 -1.12221e+00
       H  3.18365e+00 -1.61489e+00  1.20635e+00
7
# CELL(abcABC):   14.00143    14.00143    14.00143    90.00000    90.00000    90.00000  Step:       12000  Bead:       7 positions{angstrom}  cell{angstrom}
       O  2.12224e+00 -1.36447e+00  8.60510e-01
       O  1.35823e+00 -4.83575e-01 -1.21284e+00
       H  1.98406e+00 -1.16097e+00  1.81146e+00
       H  1.75732e+00 -9.94848e-01 -7.85533e-02
       H  1.92779e+00  2.78034e-01 -1.48934e+00
       H  4.60218e-01 -3.64527e-01 -1.67778e+00
       H  3.07385e+00 -1.74735e+00  7.10311e-01
7
# CELL(abcABC):   14.00143    14.00143    14.00143    90.00000    90.00000    90.00000  Step:       12400  Bead:       7 positions{angstrom}  cell{angstrom}
       O  2.18442e+00 -1.25964e+00  9.13471e-01
       O  1.30361e+00 -6.46523e-01 -1.28075e+00
       H  1.86585e+00 -8.96485e-01  1.72527e+00
       H  1.73522e+00 -9.52638e-01 -2.03948e-01
       H  1.81156e+00  1.05130e-01 -1.71094e+00
       H  5.19285e-01 -1.08214e+00 -1.81772e+00
       H  3.15691e+00 -1.18583e+00  9.18693e-01
7
# CELL(abcABC):   14.00143    14.00143    14.00143    90.00000    90.00000    90.00000  Step:       12800  Bead:       7 positions{angstrom}  cell{angstrom}
       O  2.28119e+00 -1.21144e+00  8.42649e-01
       O  1.25942e+00 -5.86214e-01 -1.26818e+00
       H  1.98903e+00 -7.84154e-01  1.72158e+00
       H  1.75034e+00 -9.80902e-01 -2.12036e-01
       H  1.48379e+00  2.98517e-01 -1.55806e+00
       H  4.03911e-01 -1.03811e+00 -1.56536e+00
       H  3.14346e+00 -1.53893e+00  9.95722e-01
7
# CELL(abcABC):   14.00143    14.00143    14.00143    90.00000    90.00000    90.00000  Step:       13200  Bead:       7 positions{angstrom}  cell{angstrom}
       O  2.26719e+00 -1.44484e+00  8.13930e-01
       O  1.28360e+00 -3.68555e-01 -1.17574e+00
       H  1.76666e+00 -1.29607e+00  1.60962e+00
       H  1.90523e+00 -7.87750e-01 -2.31525e-01
       H  1.25527e+00  6.11233e-01 -1.27988e+00
       H  8.24796e-01 -9.65473e-01 -1.81622e+00
       H  3.05543e+00 -1.91881e+00  9.70245e-01
7
# CELL(abcABC):   14.00143    14.00143    14.00143    90.00000    90.00000    90.00000  Step:       13600  Bead:       7 positions{angstrom}  cell{angstrom}
       O  2.30494e+00 -1.46958e+00  7.70849e-01
       O  1.30807e+00 -2.96706e-01 -1.11939e+00
       H  1.95224e+00 -1.22754e+00  1.74305e+00
       H  1.56428e+00 -9.01632e-01 -2.44184e-01
       H  3.61671e-01 -1.95816e-01 -1.24592e+00
       H  1.58613e+00 -6.85071e-01 -1.91465e+00
       H  2.89049e+00 -2.26181e+00  6.80605e-01
7
# CELL(abcABC):   14.00143    14.00143    14.00143    90.00000    90.00000    90.00000  Step:       14000  Bead:       7 positions{angstrom}  cell{angstrom}
       O  2.34341e+00 -1.45585e+00  7.38619e-01
       O  1.15826e+00 -3.22437e-01 -1.01064e+00
       H  1.76713e+00 -2.27623e+00  7.07030e-01
       H  1.71054e+00 -8.47546e-01 -6.59211e-02
       H  3.19756e-01 -6.26388e-01 -1.28112e+00
       H  1.56766e+00 -3.17552e-01 -1.81386e+00
       H  3.25041e+00 -1.62209e+00  9.71039e-01
7
# CELL(abcABC):   14.00143    14.00143    14.00143    90.00000    90.00000    90.00000  Step:       14400  Bead:       7 positions{angstrom}  cell{angstrom}
       O  2.31247e+00 -1.67434e+00  6.51442e-01
       O  1.17391e+00 -1.38260e-01 -9.22039e-01
       H  2.11127e+00 -2.60035e+00  4.61852e-01
       H  1.52563e+00 -7.59579e-01 -1.00882e-01
       H  8.42467e-01 -7.83990e-01 -1.55889e+00
       H  1.36016e+00  7.73789e-01 -1.25776e+00
       H  3.08191e+00 -1.47401e+00  1.23517e+00
7
# CELL(abcABC):   14.00143    14.00143    14.00143    90.00000    90.00000    90.00000  Step:       14800  Bead:       7 positions{angstrom}  cell{angstrom}
       O  2.20135e+00 -1.61554e+00  8.04825e-01
       O  1.32416e+00 -2.43853e-01 -1.10315e+00
       H  1.84415e+00 -1.46541e+00  1.78532e+00
       H  1.68697e+00 -8.41997e-01  1.19748e-01
       H  6.70361e-01 -2.45324e-01 -1.85960e+00
       H  1.60842e+00  8.16996e-01 -1.29205e+00
       H  2.52684e+00 -2.47165e+00  5.02735e-01
7
# CELL(abcABC):   14.00143    14.00143    14.00143    90.00000    90.00000    90.00000  Step:       15200  Bead:       7 positions{angstrom}  cell{angstrom}
       O  1.97078e+00 -1.73446e+00  7.65850e-01
       O  1.46776e+00 -9.89444e-02 -1.00709e+00
       H  1.65328e+00 -1.67390e+00  1.58948e+00
       H  1.86142e+00 -7.66233e-01 -2.53537e-01
       H  1.64830e+00 -6.66204e-02 -1.94666e+00
       H  1.47238e+00  8.59161e-01 -6.71990e-01
       H  2.43694e+00 -2.53009e+00  4.20407e-01
7
# CELL(abcABC):   14.00143    14.00143    14.00143    90.00000    90.00000    90.00000  Step:       15600  Bead:       7 positions{angstrom}  cell{angstrom}
       O  2.04225e+00 -1.81585e+00  5.99033e-01
       O  1.43175e+00 -1.31373e-02 -8.52644e-01
       H  2.08776e+00 -1.57604e+00  1.56939e+00
       H  1.83678e+00 -9.38468e-01 -2.07874e-01
       H  2.08315e+00  5.32875e-01 -1.40500e+00
       H  5.12023e-01  3.31425e-01 -8.67573e-01
       H  2.16793e+00 -2.74613e+00  4.19122e-01
7
# CELL(abcABC):   14.00143    14.00143    14.00143    90.00000    90.00000    90.00000  Step:       16000  Bead:       7 positions{angstrom}  cell{angstrom}
       O  2.32906e+00 -1.74778e+00  4.94811e-01
       O  1.16769e+00 -9.20781e-02 -8.30838e-01
       H  2.78679e+00 -1.60027e+00  1.37978e+00
       H  1.86867e+00 -9.83929e-01  1.21154e-01
       H  1.70857e+00  7.22651e-01 -8.52017e-01
       H  5.35757e-01 -3.20396e-01 -1.46546e+00
       H  2.29268e+00 -2.57196e+00  8.88922e-03
7
# CELL(abcABC):   14.00143    14.00143    14.00143    90.00000    90.00000    90.00000  Step:       16400  Bead:       7 positions{angstrom}  cell{angstrom}
       O  2.10774e+00 -1.76710e+00  6.67375e-01
       O  1.42211e+00 -1.12400e-01 -1.01630e+00
       H  2.70045e+00 -1.73689e+00  1.45489e+00
       H  1.94972e+00 -9.54447e-01 -2.19650e-02
       H  1.60644e+00  8.75562e-01 -9.97027e-01
       H  9.04159e-01 -2.46685e-01 -1.84527e+00
       H  1.42436e+00 -2.61459e+00  6.81222e-01
7
# CELL(abcABC):   14.00143    14.00143    14.00143    90.00000    90.00000    90.00000  Step:       16800  Bead:       7 positions{angstrom}  cell{angstrom}
       O  1.86452e+00 -1.71378e+00  8.49074e-01
       O  1.60332e+00 -1.32956e-01 -1.11846e+00
       H  2.77916e+00 -1.65155e+00  1.13301e+00
       H  1.65123e+00 -7.98912e-01 -1.37404e-01
       H  2.07553e+00  7.02598e-01 -8.62615e-01
       H  1.47196e+00 -4.21011e-01 -2.13398e+00
       H  1.36435e+00 -2.59212e+00  7.02706e-01
7
# CELL(abcABC):   14.00143    14.00143    14.00143    90.00000    90.00000    90.00000  Step:       17200  Bead:       7 positions{angstrom}  cell{angstrom}
       O  2.00755e+00 -1.64698e+00  7.90111e-01
       O  1.52561e+00 -2.11927e-01 -1.05507e+00
       H  1.59098e+00 -1.39563e+00  1.66622e+00
       H  1.64525e+00 -1.05250e+00 -3.29544e-01
       H  1.85091e+00  7.30159e-01 -9.86003e-01
       H  1.19844e+00 -4.81383e-01 -1.98469e+00
       H  2.77030e+00 -2.22053e+00  6.69200e-01
7
# CELL(abcABC):   14.00143    14.00143    14.00143    90.00000    90.00000    90.00000  Step:       17600  Bead:       7 positions{angstrom}  cell{angstrom}
       O  2.07221e+00 -1.58848e+00  8.10364e-01
       O  1.37391e+00 -2.84686e-01 -1.06121e+00
       H  2.05089e+00 -1.22913e+00  1.71356e+00
       H  1.51804e+00 -8.98847e-01 -1.48452e-01
       H  1.17459e+00  6.65066e-01 -1.37953e+00
       H  1.67412e+00 -6.85571e-01 -1.95294e+00
       H  2.85082e+00 -2.14655e+00  7.56918e-01
7
# CELL(abcABC):   14.00143    14.00143    14.00143    90.00000    90.00000    90.00000  Step:       18000  Bead:       7 positions{angstrom}  cell{angstrom}
       O  2.49826e+00 -1.51334e+00  6.57726e-01
       O  9.51758e-01 -3.59245e-01 -9.09462e-01
       H  2.34263e+00 -1.68765e+00  1.62271e+00
       H  1.60587e+00 -8.14608e-01 -2.35075e-01
       H -5.96847e-03 -4.29786e-02 -9.29652e-01
       H  1.48037e+00  1.41447e-01 -1.58384e+00
       H  3.24902e+00 -2.04793e+00  4.02575e-01
7
# CELL(abcABC):   14.00143    14.00143    14.00143    90.00000    90.00000    90.00000  Step:       18400  Bead:       7 positions{angstrom}  cell{angstrom}
       O  2.49849e+00 -1.34249e+00  6.81480e-01
       O  9.20397e-01 -5.01460e-01 -9.74897e-01
       H  2.83859e+00 -1.96835e+00  1.40962e+00
       H  1.70854e+00 -9.09848e-01 -2.23802e-01
       H  4.19583e-01  3.63813e-01 -7.95265e-01
       H  9.60528e-01 -7.76627e-01 -1.91672e+00
       H  3.28736e+00 -7.32180e-01  4.32204e-01
7
# CELL(abcABC):   14.00143    14.00143    14.00143    90.00000    90.00000    90.00000  Step:       18800  Bead:       7 positions{angstrom}  cell{angstrom}
       O  2.57957e+00 -1.23409e+00  6.72087e-01
       O  9.23325e-01 -5.79787e-01 -9.88492e-01
       H  2.97455e+00 -2.04437e+00  6.65161e-01
       H  1.93987e+00 -1.00706e+00 -2.73301e-01
       H  4.04201e-01  1.59775e-01 -9.59579e-01
       H  8.66534e-01 -1.12212e+00 -1.82574e+00
       H  3.04714e+00 -4.76831e-01  1.03727e+00
7
# CELL(abcABC):   14.00143    14.00143    14.00143    90.00000    90.00000    90.00000  Step:       19200  Bead:       7 positions{angstrom}  cell{angstrom}
       O  2.43550e+00 -1.42602e+00  6.48456e-01
       O  1.09224e+00 -3.93363e-01 -1.03687e+00
       H  3.37267e+00 -1.39865e+00  3.58255e-01
       H  1.70842e+00 -8.80764e-01  1.13150e-02
       H  5.27785e-01  5.44169e-01 -1.00949e+00
       H  1.13584e+00 -9.26762e-01 -1.75349e+00
       H  2.24976e+00 -1.70548e+00  1.69991e+00
7
# CELL(abcABC):   14.00143    14.00143    14.00143    90.00000    90.00000    90.00000  Step:       19600  Bead:       7 positions{angstrom}  cell{angstrom}
       O  2.06472e+00 -1.62028e+00  7.04984e-01
       O  1.37700e+00 -2.10054e-01 -1.04839e+00
       H  2.30500e+00 -1.41978e+00  1.60696e+00
       H  1.64415e+00 -7.09965e-01 -1.39674e-01
       H  4.03464e-01 -1.37720e-01 -1.19548e+00
       H  2.03902e+00  2.39485e-01 -1.62851e+00
       H  2.37921e+00 -2.38779e+00  4.33412e-01
7
# CELL(abcABC):   14.00143    14.00143    14.00143    90.00000    90.00000    90.00000  Step:       20000  Bead:       7 positions{angstrom}  cell{angstrom}
       O  2.01125e+00 -1.83661e+00  5.89857e-01
       O  1.50482e+00  1.46116e-02 -8.69927e-01
       H  2.32187e+00 -1.66233e+00  1.49388e+00
       H  1.82314e+00 -8.80079e-01  4.32780e-02
       H  7.94424e-01 -3.06640e-01 -1.50908e+00
       H  1.00192e+00  6.66788e-01 -5.13008e-01
       H  2.44587e+00 -2.51580e+00  3.77136e-02
7
# CELL(abcABC):   14.00143    14.00143    14.00143    90.00000    90.00000    90.00000  Step:       20400  Bead:       7 positions{angstrom}  cell{angstrom}
       O  2.11294e+00 -1.93310e+00  4.54929e-01
       O  1.46353e+00  1.10872e-01 -7.18384e-01
       H  2.88848e+00 -2.28143e+00  8.63484e-01
       H  1.63685e+00 -8.00242e-01 -2.36216e-01
       H  2.03696e+00  4.08338e-01 -1.38486e+00
       H  4.83935e-01  3.66346e-01 -8.36729e-01
       H  1.36715e+00 -2.61330e+00  6.01333e-01
7
# CELL(abcABC):   14.00143    14.00143    14.00143    90.00000    90.00000    90.00000  Step:       20800  Bead:       7 positions{angstrom}  cell{angstrom}
       O  2.16096e+00 -1.91367e+00  3.09114e-01
       O  1.35150e+00  9.82655e-02 -5.78226e-01
       H  2.99988e+00 -2.20086e+00  1.31046e-01
       H  1.91341e+00 -7.41846e-01 -1.13467e-01
       H  1.82491e+00  9.34748e-01 -7.48972e-01
       H  5.47764e-01 -4.04187e-02 -1.09053e+00
       H  1.78592e+00 -2.52536e+00  8.96036e-01
7
# CELL(abcABC):   14.00143    14.00143    14.00143    90.00000    90.00000    90.00000  Step:       21200  Bead:       7 positions{angstrom}  cell{angstrom}
       O  2.16067e+00 -1.91344e+00  3.27797e-01
       O  1.38721e+00  1.54265e-01 -5.94900e-01
       H  3.01181e+00 -2.19139e+00  6.42991e-01
       H  1.82752e+00 -6.13317e-01 -1.91310e-01
       H  1.33776e+00  8.90384e-01  1.62357e-01
       H  8.97160e-01  2.17691e-01 -1.37871e+00
       H  1.52748e+00 -2.63866e+00  4.81397e-01
7
# CELL(abcABC):   14.00143    14.00143    14.00143    90.00000    90.00000    90.00000  Step:       21600  Bead:       7 positions{angstrom}  cell{angstrom}
       O  2.13454e+00 -1.94090e+00  3.87770e-01
       O  1.37113e+00  1.39765e-01 -6.60107e-01
       H  1.58728e+00 -2.34770e+00  1.23429e+00
       H  1.83693e+00 -6.40019e-01 -1.95591e-01
       H  7.10103e-01  6.91635e-01 -2.81391e-01
       H  1.21624e+00  7.73257e-02 -1.58876e+00
       H  2.20217e+00 -2.77615e+00 -3.27880e-01
7
# CELL(abcABC):   14.00143    14.00143    14.00143    90.00000    90.00000    90.00000  Step:       22000  Bead:       7 positions{angstrom}  cell{angstrom}
       O  1.96034e+00 -1.94610e+00  4.73156e-01
       O  1.49604e+00  6.55352e-02 -7.78422e-01
       H  1.38661e+00 -2.47700e+00  1.10274e+00
       H  1.59735e+00 -1.10337e+00 -1.01416e-01
       H  7.91631e-01  6.99737e-01 -6.20829e-01
       H  2.18692e+00  5.72408e-01 -1.28698e+00
       H  2.84620e+00 -2.17809e+00  1.89770e-01
7
# CELL(abcABC):   14.00143    14.00143    14.00143    90.00000    90.00000    90.00000  Step:       22400  Bead:       7 positions{angstrom}  cell{angstrom}
       O  1.84569e+00 -2.06698e+00  2.55350e-01
       O  1.67078e+00  2.10206e-01 -6.12230e-01
       H  1.60991e+00 -2.98901e+00  1.02380e-02
       H  1.76638e+00 -7.77903e-01 -7.28110e-03
       H  9.53634e-01  1.00982e+00 -4.74154e-01
       H  2.44092e+00  4.87962e-01 -1.15405e+00
       H  2.14556e+00 -2.39082e+00  1.23116e+00
7
# CELL(abcABC):   14.00143    14.00143    14.00143    90.00000    90.00000    90.00000  Step:       22800  Bead:       7 positions{angstrom}  cell{angstrom}
       O  2.00864e+00 -2.05595e+00 -6.37941e-02
       O  1.50875e+00  2.51312e-01 -2.56344e-01
       H  2.28281e+00 -2.61681e+00 -7.66620e-01
       H  1.67207e+00 -9.87005e-01 -1.44158e-01
       H  2.01514e+00  6.41435e-01  4.01071e-01
       H  1.17554e+00  7.65876e-01 -1.03200e+00
       H  1.86076e+00 -2.69606e+00  5.93035e-01
7
# CELL(abcABC):   14.00143    14.00143    14.00143    90.00000    90.00000    90.00000  Step:       23200  Bead:       7 positions{angstrom}  cell{angstrom}
       O  2.20678e+00 -2.03238e+00 -1.21965e-01
       O  1.27995e+00  2.34621e-01 -2.47499e-01
       H  3.13457e+00 -2.08758e+00  1.42284e-01
       H  1.69826e+00 -9.30703e-01 -1.29409e-01
       H  1.38045e+00  1.00589e+00  5.22396e-01
       H  7.41338e-01  3.67491e-01 -1.02929e+00
       H  1.75849e+00 -2.77782e+00 -8.86087e-02
7
# CELL(abcABC):   14.00143    14.00143    14.00143    90.00000    90.00000    90.00000  Step:       23600  Bead:       7 positions{angstrom}  cell{angstrom}
       O  2.25853e+00 -1.98018e+00  1.96050e-01
       O  1.18584e+00  1.30255e-01 -5.46336e-01
       H  2.99523e+00 -2.11520e+00 -2.89547e-01
       H  1.49386e+00 -1.03295e+00 -7.57684e-02
       H  4.05182e-01  4.32774e-01 -1.95291e-02
       H  1.53454e+00  7.12673e-01 -1.22491e+00
       H  2.17172e+00 -2.38341e+00  1.05396e+00
7
# CELL(abcABC):   14.00143    14.00143    14.00143    90.00000    90.00000    90.00000  Step:       24000  Bead:       7 positions{angstrom}  cell{angstrom}
       O  2.27000e+00 -1.86400e+00  4.06586e-01
       O  1.16813e+00 -3.93670e-02 -7.31294e-01