7
# CELL(abcABC):   14.00143    14.00143    14.00143    90.00000    90.00000    90.00000  Step:           0  Bead:       0 x_centroid{angstrom}  cell{angstrom}
       O  5.72211e-01 -8.20992e-01 -3.40858e-01
       O  2.93099e+00 -1.00086e+00  3.45000e-02
       H  1.15544e-01 -1.32891e+00 -1.03000e+00
       H  1.75146e+00 -9.10942e-01 -1.52650e-01
       H  3.30479e+00 -1.55124e+00  7.40818e-01
       H  3.58125e+00 -5.33487e-01 -5.13365e-01
       H  5.91684e-03 -2.31237e-01  1.81684e-01
7
# CELL(abcABC):   14.00143    14.00143    14.00143    90.00000    90.00000    90.00000  Step:          40  Bead:       0 x_centroid{angstrom}  cell{angstrom}
       O  5.67886e-01 -8.27405e-01 -3.33934e-01
       O  2.93541e+00 -9.96009e-01  2.46445e-02
       H  1.12846e-01 -1.37735e+00 -9.91784e-01
       H  1.78806e+00 -8.81993e-01 -1.42790e-01
       H  3.27939e+00 -1.51896e+00  7.67012e-01
       H  3.59839e+00 -5.32654e-01 -5.24323e-01
       H -2.12772e-02 -2.20018e-01  1.64908e-01
7
# CELL(abcABC):   14.00143    14.00143    14.00143    90.00000    90.00000    90.00000  Step:          80  Bead:       0 x_centroid{angstrom}  cell{angstrom}
       O  5.49778e-01 -8.33944e-01 -3.14991e-01
       O  2.95509e+00 -9.85637e-01  3.97900e-03
       H  1.63431e-01 -1.45482e+00 -9.56007e-01
       H  1.75430e+00 -8.71889e-01 -1.93264e-01
       H  3.22756e+00 -1.47764e+00  8.02652e-01
       H  3.67273e+00 -5.51184e-01 -4.82130e-01
       H -8.54865e-02 -2.36271e-01  1.29109e-01
7
# CELL(abcABC):   14.00143    14.00143    14.00143    90.00000    90.00000    90.00000  Step:         120  Bead:       0 x_centroid{angstrom}  cell{angstrom}
       O  5.51169e-01 -8.41319e-01 -3.01121e-01
       O  2.95429e+00 -9.82093e-01 -2.09085e-02
       H  1.08249e-01 -1.48586e+00 -8.81242e-01
       H  1.75881e+00 -8.24143e-01 -1.46822e-01
       H  3.27072e+00 -1.40134e+00  8.19263e-01
       H  3.66080e+00 -5.48986e-01 -4.91949e-01
       H -7.54702e-02 -2.70657e-01  1.75988e-01
7
# CELL(abcABC):   14.00143    14.00143    14.00143    90.00000    90.00000    90.00000  Step:         160  Bead:       0 x_centroid{angstrom}  cell{angstrom}
       O  5.62364e-01 -8.43645e-01 -2.88163e-01
       O  2.93895e+00 -9.79372e-01 -3.00737e-02
       H  6.99439e-02 -1.46594e+00 -8.19984e-01
       H  1.76780e+00 -8.76907e-01 -1.92969e-01
       H  3.31574e+00 -1.38643e+00  7.81386e-01
       H  3.58907e+00 -5.37098e-01 -6.22763e-01
       H  4.63657e-02 -2.70884e-01  2.69374e-01
7
# CELL(abcABC):   14.00143    14.00143    14.00143    90.00000    90.00000    90.00000  Step:         200  Bead:       0 x_centroid{angstrom}  cell{angstrom}
       O  5.77193e-01 -8.44249e-01 -2.76989e-01
       O  2.91960e+00 -9.73806e-01 -3.67240e-02
       H  5.24159e-02 -1.45586e+00 -7.86936e-01
       H  1.72996e+00 -1.00360e+00 -1.74332e-01
       H  3.42342e+00 -1.31509e+00  7.15123e-01
       H  3.50100e+00 -5.93559e-01 -7.54841e-01
       H  1.53880e-01 -2.47927e-01  3.44214e-01
7
# CELL(abcABC):   14.00143    14.00143    14.00143    90.00000    90.00000    90.00000  Step:         240  Bead:       0 x_centroid{angstrom}  cell{angstrom}
       O  5.80047e-01 -8.50676e-01 -2.61205e-01
       O  2.92718e+00 -9.78182e-01 -6.05071e-02
       H -6.31762e-02 -1.44123e+00 -6.79709e-01
       H  1.74910e+00 -9.43374e-01 -7.79251e-02
       H  3.46951e+00 -1.18790e+00  7.14879e-01
       H  3.36173e+00 -6.08889e-01 -8.69519e-01
       H  1.77848e-01 -2.63151e-01  3.82477e-01
7
# CELL(abcABC):   14.00143    14.00143    14.00143    90.00000    90.00000    90.00000  Step:         280  Bead:       0 x_centroid{angstrom}  cell{angstrom}
       O  5.50969e-01 -8.52985e-01 -2.20895e-01
       O  2.95335e+00 -9.76263e-01 -9.05728e-02
       H -3.45550e-02 -1.51880e+00 -6.45933e-01
       H  1.78217e+00 -9.72401e-01 -1.55249e-01
       H  3.54002e+00 -9.98935e-01  6.87794e-01
       H  3.39346e+00 -7.04107e-01 -9.10862e-01
       H  6.00160e-02 -2.44115e-01  3.31846e-01
7
# CELL(abcABC):   14.00143    14.00143    14.00143    90.00000    90.00000    90.00000  Step:         320  Bead:       0 x_centroid{angstrom}  cell{angstrom}
       O  5.17315e-01 -8.62883e-01 -1.68994e-01
       O  2.98604e+00 -9.63846e-01 -1.34283e-01
       H  1.11355e-01 -1.57602e+00 -7.06434e-01
       H  1.66958e+00 -9.13401e-01 -4.69398e-02
       H  3.53392e+00 -8.77345e-01  6.52091e-01
       H  3.49772e+00 -9.09811e-01 -9.52296e-01
       H -5.61232e-02 -2.01781e-01  2.31160e-01
7
# CELL(abcABC):   14.00143    14.00143    14.00143    90.00000    90.00000    90.00000  Step:         360  Bead:       0 x_centroid{angstrom}  cell{angstrom}
       O  5.20576e-01 -8.78824e-01 -1.17750e-01
       O  2.98294e+00 -9.47596e-01 -1.65850e-01
       H  1.41681e-01 -1.49753e+00 -7.51309e-01
       H  1.75534e+00 -7.79064e-01 -2.13554e-01
       H  3.52921e+00 -8.05821e-01  6.09837e-01
       H  3.44049e+00 -1.20974e+00 -9.77361e-01
       H -1.12805e-01 -1.91093e-01  1.97626e-01
7
# CELL(abcABC):   14.00143    14.00143    14.00143    90.00000    90.00000    90.00000  Step:         400  Bead:       0 x_centroid{angstrom}  cell{angstrom}
       O  5.69576e-01 -9.03327e-01 -8.52344e-02
       O  2.93469e+00 -9.13783e-01 -2.09183e-01
       H  1.51145e-01 -1.39721e+00 -7.87653e-01
       H  1.76950e+00 -8.60066e-01 -6.12034e-02
       H  3.53377e+00 -7.34991e-01  5.31879e-01
       H  3.34647e+00 -1.43134e+00 -9.09650e-01
       H -5.89309e-02 -2.07423e-01  2.63581e-01
7
# CELL(abcABC):   14.00143    14.00143    14.00143    90.00000    90.00000    90.00000  Step:         440  Bead:       0 x_centroid{angstrom}  cell{angstrom}
       O  5.87788e-01 -9.21316e-01 -5.37583e-02
       O  2.91111e+00 -8.89830e-01 -2.48350e-01
       H  1.80336e-01 -1.36584e+00 -8.24914e-01
       H  1.77888e+00 -9.68728e-01 -4.02975e-02
       H  3.52553e+00 -6.47132e-01  4.90088e-01
       H  3.23983e+00 -1.54986e+00 -8.70797e-01
       H  1.02563e-01 -1.94144e-01  4.04948e-01
7
# CELL(abcABC):   14.00143    14.00143    14.00143    90.00000    90.00000    90.00000  Step:         480  Bead:       0 x_centroid{angstrom}  cell{angstrom}
       O  5.55496e-01 -9.37565e-01 -8.06105e-03
       O  2.95175e+00 -8.85796e-01 -2.92998e-01
       H  3.78616e-03 -1.28387e+00 -7.82325e-01
       H  1.72237e+00 -7.94178e-01 -1.65821e-01
       H  3.58015e+00 -5.25912e-01  3.54664e-01
       H  3.32326e+00 -1.62074e+00 -7.86671e-01
       H  6.50885e-02 -3.07122e-01  5.22527e-01
7
# CELL(abcABC):   14.00143    14.00143    14.00143    90.00000    90.00000    90.00000  Step:         520  Bead:       0 x_centroid{angstrom}  cell{angstrom}
       O  5.16793e-01 -9.47792e-01  1.58030e-02
       O  2.99563e+00 -8.73128e-01 -3.32002e-01
       H -1.10964e-01 -1.29172e+00 -6.96831e-01
       H  1.67917e+00 -8.56539e-01 -2.04218e-01
       H  3.55214e+00 -3.42446e-01  2.50652e-01
       H  3.43553e+00 -1.64882e+00 -6.47333e-01
       H  5.66997e-02 -4.31033e-01  6.80423e-01
7
# CELL(abcABC):   14.00143    14.00143    14.00143    90.00000    90.00000    90.00000  Step:         560  Bead:       0 x_centroid{angstrom}  cell{angstrom}
       O  5.14654e-01 -9.70377e-01  2.73612e-02
       O  2.98897e+00 -8.38949e-01 -3.64328e-01
       H -7.30347e-02 -1.39267e+00 -6.22790e-01
       H  1.68451e+00 -1.03342e+00 -6.33425e-02
       H  3.44025e+00 -1.93054e-01  1.70958e-01
       H  3.57771e+00 -1.54138e+00 -6.15435e-01
       H  1.22793e-01 -5.94067e-01  8.42957e-01
7
# CELL(abcABC):   14.00143    14.00143    14.00143    90.00000    90.00000    90.00000  Step:         600  Bead:       0 x_centroid{angstrom}  cell{angstrom}
       O  5.71774e-01 -9.94372e-01  5.32762e-02
       O  2.93618e+00 -8.33732e-01 -3.73205e-01
       H -2.30999e-02 -1.35341e+00 -5.72739e-01
       H  1.71725e+00 -9.02735e-01 -2.74086e-01
       H  3.28801e+00 -5.61523e-02  7.78841e-02
       H  3.59483e+00 -1.48376e+00 -6.72701e-01
       H  1.06534e-01 -6.60472e-01  8.83549e-01
7
# CELL(abcABC):   14.00143    14.00143    14.00143    90.00000    90.00000    90.00000  Step:         640  Bead:       0 x_centroid{angstrom}  cell{angstrom}
       O  6.26025e-01 -1.02928e+00  7.21136e-02
       O  2.88242e+00 -8.06380e-01 -3.88023e-01
       H -1.81578e-02 -1.28872e+00 -5.49783e-01
       H  1.74083e+00 -9.32487e-01 -2.25555e-01
       H  3.21693e+00  4.92523e-02 -3.18451e-02
       H  3.47918e+00 -1.48090e+00 -7.70799e-01
       H  2.56910e-01 -6.83756e-01  9.56078e-01
7
# CELL(abcABC):   14.00143    14.00143    14.00143    90.00000    90.00000    90.00000  Step:         680  Bead:       0 x_centroid{angstrom}  cell{angstrom}
       O  6.09699e-01 -1.07207e+00  9.47796e-02
       O  2.87914e+00 -7.59547e-01 -4.08974e-01
       H -1.05852e-01 -1.29298e+00 -5.14347e-01
       H  1.84241e+00 -1.03076e+00 -1.39046e-01
       H  3.32369e+00  1.01393e-01 -2.35049e-01
       H  3.51908e+00 -1.36859e+00 -7.67794e-01
       H  4.07640e-01 -8.09862e-01  1.00712e+00
7
# CELL(abcABC):   14.00143    14.00143    14.00143    90.00000    90.00000    90.00000  Step:         720  Bead:       0 x_centroid{angstrom}  cell{angstrom}
       O  5.82318e-01 -1.10685e+00  1.28998e-01
       O  2.93911e+00 -7.26077e-01 -4.33742e-01
       H -1.63162e-01 -1.29402e+00 -5.21788e-01
       H  1.70292e+00 -9.68497e-01 -2.17682e-01
       H  3.15295e+00  2.24509e-01 -2.54587e-01
       H  3.56408e+00 -1.37336e+00 -7.90798e-01
       H  2.12857e-01 -9.68621e-01  9.85719e-01
7
# CELL(abcABC):   14.00143    14.00143    14.00143    90.00000    90.00000    90.00000  Step:         760  Bead:       0 x_centroid{angstrom}  cell{angstrom}
       O  5.59293e-01 -1.14251e+00  1.46753e-01
       O  2.93728e+00 -6.85898e-01 -4.47989e-01
       H -2.52300e-02 -1.30305e+00 -6.36481e-01
       H  1.74626e+00 -8.70086e-01 -1.37718e-01
       H  3.28801e+00  2.20032e-01 -3.86861e-01
       H  3.64535e+00 -1.32704e+00 -7.09762e-01
       H  2.09701e-01 -1.17148e+00  1.01601e+00
7
# CELL(abcABC):   14.00143    14.00143    14.00143    90.00000    90.00000    90.00000  Step:         800  Bead:       0 x_centroid{angstrom}  cell{angstrom}
       O  5.90467e-01 -1.15706e+00  1.31972e-01
       O  2.90982e+00 -6.46058e-01 -4.43151e-01
       H -2.89829e-02 -1.35422e+00 -6.01836e-01
       H  1.79208e+00 -9.83571e-01 -1.50788e-02
       H  3.32544e+00  2.20390e-01 -4.91030e-01
       H  3.52410e+00 -1.39472e+00 -5.85962e-01
       H  1.92586e-01 -1.34102e+00  9.96916e-01
7
# CELL(abcABC):   14.00143    14.00143    14.00143    90.00000    90.00000    90.00000  Step:         840  Bead:       0 x_centroid{angstrom}  cell{angstrom}
       O  6.26031e-01 -1.17273e+00  1.10812e-01
       O  2.87978e+00 -6.34482e-01 -4.09667e-01
       H  2.59596e-02 -1.40347e+00 -6.01450e-01
       H  1.76207e+00 -7.53960e-01 -2.30928e-01
       H  3.24059e+00  2.44226e-01 -5.66267e-01
       H  3.40504e+00 -1.46250e+00 -5.05924e-01
       H  2.83888e-01 -1.41241e+00  1.01196e+00
7
# CELL(abcABC):   14.00143    14.00143    14.00143    90.00000    90.00000    90.00000  Step:         880  Bead:       0 x_centroid{angstrom}  cell{angstrom}
       O  6.28916e-01 -1.19078e+00  9.68702e-02
       O  2.86633e+00 -6.13943e-01 -3.96596e-01
       H  3.46622e-02 -1.48634e+00 -5.97888e-01
       H  1.69752e+00 -8.32554e-01 -1.23943e-01
       H  3.30672e+00  2.26038e-01 -6.75239e-01
       H  3.42093e+00 -1.39459e+00 -5.26514e-01
       H  4.25379e-01 -1.34023e+00  1.04479e+00
7
# CELL(abcABC):   14.00143    14.00143    14.00143    90.00000    90.00000    90.00000  Step:         920  Bead:       0 x_centroid{angstrom}  cell{angstrom}
       O  6.11734e-01 -1.20118e+00  1.05570e-01
       O  2.88886e+00 -5.95417e-01 -4.01078e-01
       H -3.23164e-02 -1.59392e+00 -5.10527e-01
       H  1.77702e+00 -9.03541e-01 -2.07396e-01
       H  3.29562e+00  2.61700e-01 -7.01261e-01
       H  3.41565e+00 -1.35884e+00 -5.73892e-01
       H  3.44321e-01 -1.36202e+00  1.04734e+00
7
# CELL(abcABC):   14.00143    14.00143    14.00143    90.00000    90.00000    90.00000  Step:         960  Bead:       0 x_centroid{angstrom}  cell{angstrom}
       O  5.75983e-01 -1.20814e+00  9.67368e-02
       O  2.92736e+00 -6.04492e-01 -3.98760e-01
       H -7.69311e-02 -1.71969e+00 -4.59291e-01
       H  1.74969e+00 -7.73846e-01 -2.12483e-01
       H  3.19935e+00  2.90718e-01 -6.67632e-01
       H  3.54576e+00 -1.30176e+00 -5.76984e-01
       H  3.38861e-01 -1.19755e+00  1.07406e+00
7
# CELL(abcABC):   14.00143    14.00143    14.00143    90.00000    90.00000    90.00000  Step:        1000  Bead:       0 x_centroid{angstrom}  cell{angstrom}
       O  5.64855e-01 -1.19649e+00  7.77301e-02
       O  2.93757e+00 -6.05472e-01 -3.82734e-01
       H -6.61744e-02 -1.74901e+00 -4.62906e-01
       H  1.69594e+00 -1.04283e+00 -1.50349e-01
       H  3.16768e+00  2.89356e-01 -6.32605e-01
       H  3.59650e+00 -1.30835e+00 -5.80305e-01
       H  3.77346e-01 -1.06061e+00  1.03117e+00
7
# CELL(abcABC):   14.00143    14.00143    14.00143    90.00000    90.00000    90.00000  Step:        1040  Bead:       0 x_centroid{angstrom}  cell{angstrom}
       O  5.98179e-01 -1.18534e+00  6.63531e-02
       O  2.91081e+00 -6.29835e-01 -3.62706e-01
       H -6.11055e-02 -1.74811e+00 -5.19037e-01
       H  1.70048e+00 -9.17005e-01 -1.89102e-01
       H  3.11657e+00  2.63188e-01 -6.35525e-01
       H  3.64652e+00 -1.24309e+00 -5.55391e-01
       H  2.64652e-01 -1.01670e+00  9.66727e-01
7
# CELL(abcABC):   14.00143    14.00143    14.00143    90.00000    90.00000    90.00000  Step:        1080  Bead:       0 x_centroid{angstrom}  cell{angstrom}
       O  6.24580e-01 -1.17758e+00  6.19522e-02
       O  2.88708e+00 -6.36725e-01 -3.49804e-01
       H  1.00841e-01 -1.70826e+00 -6.16775e-01
       H  1.77043e+00 -8.77437e-01 -1.35883e-01
       H  3.06435e+00  2.42325e-01 -7.50802e-01
       H  3.52625e+00 -1.33124e+00 -4.68171e-01
       H  1.62733e-01 -1.00095e+00  9.04370e-01
7
# CELL(abcABC):   14.00143    14.00143    14.00143    90.00000    90.00000    90.00000  Step:        1120  Bead:       0 x_centroid{angstrom}  cell{angstrom}
       O  6.02028e-01 -1.19116e+00  5.37244e-02
       O  2.89873e+00 -6.13900e-01 -3.39449e-01
       H  2.15161e-01 -1.72845e+00 -6.49323e-01
       H  1.76989e+00 -9.67582e-01 -7.20665e-02
       H  3.25202e+00  1.79246e-01 -8.23372e-01
       H  3.51954e+00 -1.33203e+00 -3.84683e-01
       H  4.10404e-02 -9.73518e-01  8.28410e-01
7
# CELL(abcABC):   14.00143    14.00143    14.00143    90.00000    90.00000    90.00000  Step:        1160  Bead:       0 x_centroid{angstrom}  cell{angstrom}
       O  5.87002e-01 -1.23423e+00  5.71108e-02
       O  2.92471e+00 -5.87700e-01 -3.42423e-01
       H  2.51916e-01 -1.68376e+00 -6.67841e-01
       H  1.73418e+00 -7.09046e-01 -1.15295e-01
       H  3.22118e+00  2.19858e-01 -8.30057e-01
       H  3.50999e+00 -1.34070e+00 -2.73631e-01
       H -9.33954e-02 -1.04091e+00  7.79247e-01
7
# CELL(abcABC):   14.00143    14.00143    14.00143    90.00000    90.00000    90.00000  Step:        1200  Bead:       0 x_centroid{angstrom}  cell{angstrom}
       O  5.91309e-01 -1.24677e+00  6.08044e-02
       O  2.91385e+00 -5.64242e-01 -3.48149e-01
       H  2.07044e-01 -1.69549e+00 -6.80599e-01
       H  1.79273e+00 -8.89814e-01 -1.27037e-01
       H  3.29648e+00  1.97274e-01 -8.38084e-01
       H  3.51713e+00 -1.27210e+00 -1.92509e-01
       H -8.55054e-02 -1.06778e+00  7.62902e-01
7
# CELL(abcABC):   14.00143    14.00143    14.00143    90.00000    90.00000    90.00000  Step:        1240  Bead:       0 x_centroid{angstrom}  cell{angstrom}
       O  5.92928e-01 -1.25216e+00  4.15595e-02
       O  2.91070e+00 -5.70734e-01 -3.38082e-01
       H  1.25519e-01 -1.70384e+00 -7.00779e-01
       H  1.75886e+00 -8.94385e-01 -1.08716e-01
       H  3.16829e+00  2.07798e-01 -8.60571e-01
       H  3.59039e+00 -1.15064e+00 -6.74018e-02
       H  1.09020e-01 -9.98076e-01  8.07832e-01
7
# CELL(abcABC):   14.00143    14.00143    14.00143    90.00000    90.00000    90.00000  Step:        1280  Bead:       0 x_centroid{angstrom}  cell{angstrom}
       O  6.00699e-01 -1.24683e+00  2.53421e-02
       O  2.90359e+00 -5.88496e-01 -3.29334e-01
       H  4.17972e-02 -1.66742e+00 -6.54972e-01
       H  1.73250e+00 -8.94908e-01 -1.89552e-01
       H  3.03560e+00  2.34971e-01 -8.00490e-01
       H  3.73662e+00 -9.69132e-01 -4.60249e-03
       H  1.95109e-01 -1.04533e+00  8.38546e-01
7
# CELL(abcABC):   14.00143    14.00143    14.00143    90.00000    90.00000    90.00000  Step:        1320  Bead:       0 x_centroid{angstrom}  cell{angstrom}
       O  6.03751e-01 -1.23552e+00  8.97359e-03
       O  2.90015e+00 -5.80929e-01 -3.32026e-01
       H  9.89288e-02 -1.68663e+00 -6.42742e-01
       H  1.81210e+00 -1.15204e+00 -1.14506e-01
       H  2.97559e+00  2.77983e-01 -7.52197e-01
       H  3.68662e+00 -8.83058e-01  1.27039e-01
       H  1.74535e-01 -1.19781e+00  8.73892e-01
7
# CELL(abcABC):   14.00143    14.00143    14.00143    90.00000    90.00000    90.00000  Step:        1360  Bead:       0 x_centroid{angstrom}  cell{angstrom}
       O  5.77633e-01 -1.24222e+00  8.16816e-03
       O  2.92661e+00 -5.81928e-01 -3.38018e-01
       H  1.83742e-01 -1.73457e+00 -6.87481e-01
       H  1.76244e+00 -9.41774e-01 -1.69175e-01
       H  2.95438e+00  3.14732e-01 -7.11139e-01
       H  3.65041e+00 -7.91153e-01  2.65397e-01
       H  1.91328e-01 -1.36657e+00  9.01787e-01
7
# CELL(abcABC):   14.00143    14.00143    14.00143    90.00000    90.00000    90.00000  Step:        1400  Bead:       0 x_centroid{angstrom}  cell{angstrom}
       O  5.95664e-01 -1.26205e+00  6.10379e-03
       O  2.91611e+00 -5.59563e-01 -3.47067e-01
       H  2.25674e-01 -1.81955e+00 -7.09133e-01
       H  1.73445e+00 -8.37498e-01 -1.28459e-01
       H  3.02890e+00  3.58610e-01 -6.09982e-01
       H  3.50997e+00 -7.62720e-01  3.75038e-01
       H  1.23876e-01 -1.49835e+00  8.48329e-01
7
# CELL(abcABC):   14.00143    14.00143    14.00143    90.00000    90.00000    90.00000  Step:        1440  Bead:       0 x_centroid{angstrom}  cell{angstrom}
       O  6.30854e-01 -1.30770e+00 -8.15690e-03
       O  2.87602e+00 -5.03420e-01 -3.27598e-01
       H  3.05095e-01 -1.79783e+00 -8.35492e-01
       H  1.73889e+00 -9.76083e-01 -2.06910e-01
       H  3.13363e+00  3.85770e-01 -5.54224e-01
       H  3.31223e+00 -9.28774e-01  4.07987e-01
       H  2.10833e-01 -1.40919e+00  8.81756e-01
7
# CELL(abcABC):   14.00143    14.00143    14.00143    90.00000    90.00000    90.00000  Step:        1480  Bead:       0 x_centroid{angstrom}  cell{angstrom}
       O  6.92091e-01 -1.36026e+00 -4.50731e-02
       O  2.82480e+00 -4.67477e-01 -2.76033e-01
       H  1.22641e-01 -1.74510e+00 -8.29007e-01
       H  1.69572e+00 -6.85819e-01 -2.48054e-01
       H  3.23389e+00  3.74130e-01 -4.83056e-01
       H  3.38015e+00 -1.01765e+00  2.61905e-01
       H  1.09254e-01 -1.38788e+00  7.58808e-01
7
# CELL(abcABC):   14.00143    14.00143    14.00143    90.00000    90.00000    90.00000  Step:        1520  Bead:       0 x_centroid{angstrom}  cell{angstrom}
       O  6.75847e-01 -1.41641e+00 -9.21191e-02
       O  2.83817e+00 -4.08601e-01 -2.19126e-01
       H  1.72616e-01 -1.67509e+00 -9.49607e-01
       H  1.67531e+00 -8.20882e-01 -5.45372e-02
       H  3.22142e+00  4.32949e-01 -4.47721e-01
       H  3.41190e+00 -1.11959e+00  4.70387e-02
       H  1.05939e-01 -1.32300e+00  7.08885e-01
7
# CELL(abcABC):   14.00143    14.00143    14.00143    90.00000    90.00000    90.00000  Step:        1560  Bead:       0 x_centroid{angstrom}  cell{angstrom}
       O  6.36022e-01 -1.45507e+00 -1.26533e-01
       O  2.86601e+00 -3.73728e-01 -1.44929e-01
       H  2.97538e-01 -1.64388e+00 -1.03498e+00
       H  1.76642e+00 -9.10725e-01 -1.57439e-01
       H  3.14971e+00  4.76755e-01 -4.78908e-01
       H  3.58422e+00 -1.02201e+00 -2.56029e-01
       H -2.04676e-02 -1.34562e+00  5.99918e-01
7
# CELL(abcABC):   14.00143    14.00143    14.00143    90.00000    90.00000    90.00000  Step:        1600  Bead:       0 x_centroid{angstrom}  cell{angstrom}
       O  6.52527e-01 -1.46989e+00 -1.90402e-01
       O  2.87372e+00 -3.75970e-01 -7.34223e-02
       H  2.10998e-01 -1.64567e+00 -1.03665e+00
       H  1.80054e+00 -8.90378e-01 -6.22994e-02
       H  2.78966e+00  5.63099e-01 -3.64578e-01
       H  3.63609e+00 -8.41713e-01 -4.82728e-01
       H -4.41403e-02 -1.36000e+00  4.97599e-01
7
# CELL(abcABC):   14.00143    14.00143    14.00143    90.00000    90.00000    90.00000  Step:        1640  Bead:       0 x_centroid{angstrom}  cell{angstrom}
       O  6.90381e-01 -1.45860e+00 -2.46454e-01
       O  2.82969e+00 -3.83566e-01 -2.66479e-02
       H  3.21138e-01 -1.70634e+00 -1.10227e+00
       H  1.85127e+00 -1.09505e+00 -9.20643e-02
       H  2.56887e+00  5.68837e-01 -7.84545e-02
       H  3.60097e+00 -6.93764e-01 -5.62786e-01
       H  1.48840e-01 -1.30706e+00  5.34183e-01
7
# CELL(abcABC):   14.00143    14.00143    14.00143    90.00000    90.00000    90.00000  Step:        1680  Bead:       0 x_centroid{angstrom}  cell{angstrom}
       O  7.34685e-01 -1.44123e+00 -2.75394e-01
       O  2.79020e+00 -4.15707e-01  2.51709e-03
       H  3.38221e-01 -1.80991e+00 -1.07563e+00
       H  1.82421e+00 -1.03771e+00 -2.19697e-01
       H  2.61243e+00  5.78215e-01  1.91877e-01
       H  3.60865e+00 -4.44916e-01 -5.55154e-01
       H  3.12666e-02 -1.28453e+00  3.53637e-01
7
# CELL(abcABC):   14.00143    14.00143    14.00143    90.00000    90.00000    90.00000  Step:        1720  Bead:       0 x_centroid{angstrom}  cell{angstrom}
       O  7.02675e-01 -1.46714e+00 -3.21804e-01
       O  2.81525e+00 -3.83678e-01  2.30537e-02
       H  5.05597e-01 -1.90547e+00 -1.14018e+00
       H  1.72905e+00 -9.35614e-01 -1.19248e-01
       H  2.62131e+00  4.62368e-01  5.72758e-01
       H  3.63764e+00 -4.77030e-01 -5.40071e-01
       H  3.15937e-02 -1.24029e+00  3.32467e-01
7
# CELL(abcABC):   14.00143    14.00143    14.00143    90.00000    90.00000    90.00000  Step:        1760  Bead:       0 x_centroid{angstrom}  cell{angstrom}
       O  6.93767e-01 -1.49441e+00 -3.64617e-01
       O  2.80400e+00 -3.38552e-01  6.48874e-02
       H  4.99968e-01 -1.97277e+00 -1.18061e+00
       H  1.77146e+00 -1.00221e+00 -2.25410e-01
       H  3.00947e+00  2.97620e-01  8.27236e-01
       H  3.68292e+00 -4.15797e-01 -4.45203e-01
       H -1.18698e-01 -1.28625e+00  1.45252e-01
7
# CELL(abcABC):   14.00143    14.00143    14.00143    90.00000    90.00000    90.00000  Step:        1800  Bead:       0 x_centroid{angstrom}  cell{angstrom}
       O  6.95541e-01 -1.50875e+00 -4.13836e-01
       O  2.81508e+00 -3.08410e-01  1.09650e-01
       H  5.95754e-01 -2.03402e+00 -1.24511e+00
       H  1.65420e+00 -7.74675e-01 -1.40699e-01
       H  2.97547e+00  5.86124e-02  1.02856e+00
       H  3.55304e+00 -5.10240e-01 -5.49273e-01
       H -1.37267e-01 -1.36997e+00  9.85305e-02
7
# CELL(abcABC):   14.00143    14.00143    14.00143    90.00000    90.00000    90.00000  Step:        1840  Bead:       0 x_centroid{angstrom}  cell{angstrom}
       O  7.11123e-01 -1.47720e+00 -4.53754e-01
       O  2.77883e+00 -3.01786e-01  1.41026e-01
       H  7.69246e-01 -2.06353e+00 -1.23459e+00
       H  1.77028e+00 -9.31888e-01 -1.16705e-01
       H  3.01453e+00 -1.49057e-01  1.05867e+00
       H  3.52758e+00 -5.23010e-01 -4.51847e-01
       H -1.12396e-01 -1.56875e+00  7.20701e-02
7
# CELL(abcABC):   14.00143    14.00143    14.00143    90.00000    90.00000    90.00000  Step:        1880  Bead:       0 x_centroid{angstrom}  cell{angstrom}
       O  7.42374e-01 -1.44314e+00 -4.78213e-01
       O  2.74468e+00 -3.31625e-01  1.56056e-01
       H  8.50808e-01 -2.06523e+00 -1.21931e+00
       H  1.70582e+00 -9.26435e-01 -7.37759e-02
       H  2.93852e+00 -2.12223e-01  1.07747e+00
       H  3.54103e+00 -4.20475e-01 -3.66013e-01
       H -2.09510e-02 -1.67882e+00  5.89015e-02
7
# CELL(abcABC):   14.00143    14.00143    14.00143    90.00000    90.00000    90.00000  Step:        1920  Bead:       0 x_centroid{angstrom}  cell{angstrom}
       O  7.32690e-01 -1.43751e+00 -5.26514e-01
       O  2.75877e+00 -3.62305e-01  2.12180e-01
       H  9.39338e-01 -1.99444e+00 -1.28883e+00
       H  1.71218e+00 -7.56863e-01 -1.82816e-01
       H  2.79954e+00 -1.66224e-01  1.13312e+00
       H  3.45881e+00 -3.23785e-01 -4.28236e-01
       H  3.54655e-02 -1.66418e+00  1.19857e-01
7
# CELL(abcABC):   14.00143    14.00143    14.00143    90.00000    90.00000    90.00000  Step:        1960  Bead:       0 x_centroid{angstrom}  cell{angstrom}
       O  7.27247e-01 -1.41169e+00 -5.78332e-01
       O  2.75734e+00 -3.86787e-01  2.53345e-01
       H  8.19262e-01 -2.05202e+00 -1.27352e+00
       H  1.75528e+00 -8.74354e-01 -1.48287e-01
       H  2.92215e+00 -1.25592e-01  1.15000e+00
       H  3.55012e+00 -1.89154e-01 -2.51597e-01
       H  7.52116e-03 -1.68562e+00  4.56077e-02
7
# CELL(abcABC):   14.00143    14.00143    14.00143    90.00000    90.00000    90.00000  Step:        2000  Bead:       0 x_centroid{angstrom}  cell{angstrom}
       O  7.38027e-01 -1.39777e+00 -6.23526e-01
       O  2.77153e+00 -4.10342e-01  3.04099e-01
       H  7.21828e-01 -2.04538e+00 -1.33250e+00
       H  1.70801e+00 -1.00480e+00 -2.06790e-01
       H  2.72805e+00 -1.65606e-01  1.22413e+00
       H  3.52591e+00 -1.01884e-01 -2.29671e-01
       H -2.57305e-02 -1.45626e+00 -2.12493e-02
7
# CELL(abcABC):   14.00143    14.00143    14.00143    90.00000    90.00000    90.00000  Step:        2040  Bead:       0 x_centroid{angstrom}  cell{angstrom}
       O  7.47579e-01 -1.39354e+00 -6.56540e-01
       O  2.76309e+00 -4.50587e-01  3.43113e-01
       H  5.90358e-01 -1.96488e+00 -1.45136e+00
       H  1.88543e+00 -8.48101e-01 -1.99621e-01
       H  2.69392e+00 -1.52898e-01  1.23591e+00
       H  3.47869e+00 -2.90097e-02 -1.43455e-01
       H -7.94266e-03 -1.20736e+00 -1.02787e-01
7
# CELL(abcABC):   14.00143    14.00143    14.00143    90.00000    90.00000    90.00000  Step:        2080  Bead:       0 x_centroid{angstrom}  cell{angstrom}
       O  7.71812e-01 -1.37356e+00 -6.78357e-01
       O  2.75870e+00 -4.69119e-01  3.70028e-01
       H  5.22140e-01 -1.88131e+00 -1.48731e+00
       H  1.78706e+00 -1.04037e+00 -1.95769e-01
       H  2.58596e+00 -2.12265e-01  1.31027e+00
       H  3.45552e+00 -1.22171e-02 -1.21885e-01
       H -2.52457e-02 -1.07898e+00 -2.47529e-01
7
# CELL(abcABC):   14.00143    14.00143    14.00143    90.00000    90.00000    90.00000  Step:        2120  Bead:       0 x_centroid{angstrom}  cell{angstrom}
       O  7.85625e-01 -1.35493e+00 -6.91633e-01
       O  2.72035e+00 -5.09344e-01  3.93991e-01
       H  7.71547e-01 -1.77843e+00 -1.57328e+00
       H  1.85615e+00 -9.80802e-01 -2.47026e-01
       H  2.55599e+00 -2.08487e-01  1.33405e+00
       H  3.48523e+00 -8.69234e-02 -4.91433e-02
       H  4.59473e-02 -8.27770e-01 -3.76456e-01
7
# CELL(abcABC):   14.00143    14.00143    14.00143    90.00000    90.00000    90.00000  Step:        2160  Bead:       0 x_centroid{angstrom}  cell{angstrom}
       O  7.83119e-01 -1.33774e+00 -6.91113e-01
       O  2.72305e+00 -5.38405e-01  4.04541e-01
       H  8.82045e-01 -1.67304e+00 -1.61378e+00
       H  1.71220e+00 -8.66493e-01 -1.33576e-01
       H  2.58175e+00 -2.11436e-01  1.34683e+00
       H  3.54201e+00 -1.81790e-01 -1.20519e-02
       H -6.11287e-03 -7.61131e-01 -6.74998e-01
7
# CELL(abcABC):   14.00143    14.00143    14.00143    90.00000    90.00000    90.00000  Step:        2200  Bead:       0 x_centroid{angstrom}  cell{angstrom}
       O  7.58493e-01 -1.31524e+00 -7.10931e-01
       O  2.73391e+00 -5.38178e-01  4.31878e-01
       H  1.06149e+00 -1.79527e+00 -1.50002e+00
       H  1.76061e+00 -9.82070e-01 -1.29532e-01
       H  2.62030e+00 -2.16144e-01  1.33151e+00
       H  3.55133e+00 -2.85532e-01 -8.90467e-02
       H -6.33845e-02 -7.75719e-01 -8.19842e-01
7
# CELL(abcABC):   14.00143    14.00143    14.00143    90.00000    90.00000    90.00000  Step:        2240  Bead:       0 x_centroid{angstrom}  cell{angstrom}
       O  7.56928e-01 -1.28917e+00 -7.54035e-01
       O  2.74531e+00 -5.57429e-01  4.65606e-01
       H  9.44510e-01 -1.97252e+00 -1.41682e+00
       H  1.61617e+00 -8.47493e-01 -9.24570e-02
       H  2.78086e+00 -1.81448e-01  1.34905e+00
       H  3.55158e+00 -3.11910e-01 -8.62486e-02
       H -1.18873e-01 -8.49644e-01 -8.11639e-01
7
# CELL(abcABC):   14.00143    14.00143    14.00143    90.00000    90.00000    90.00000  Step:        2280  Bead:       0 x_centroid{angstrom}  cell{angstrom}
       O  7.69839e-01 -1.25105e+00 -8.09831e-01
       O  2.72965e+00 -5.70921e-01  5.11551e-01
       H  7.96572e-01 -2.08266e+00 -1.27675e+00
       H  1.75711e+00 -8.65962e-01 -1.75061e-01
       H  2.89158e+00 -2.22846e-01  1.40437e+00
       H  3.52365e+00 -4.59417e-01 -9.24842e-02
       H -1.51087e-01 -9.22943e-01 -7.61809e-01
7
# CELL(abcABC):   14.00143    14.00143    14.00143    90.00000    90.00000    90.00000  Step:        2320  Bead:       0 x_centroid{angstrom}  cell{angstrom}
       O  7.98656e-01 -1.21160e+00 -8.44790e-01
       O  2.70738e+00 -5.96905e-01  5.15937e-01
       H  8.40777e-01 -2.08056e+00 -1.21243e+00
       H  1.66556e+00 -8.92936e-01 -2.27918e-02
       H  2.73653e+00 -2.76927e-01  1.43732e+00
       H  3.54844e+00 -6.97529e-01  1.79755e-02
       H -7.73846e-02 -8.19734e-01 -6.36508e-01
7
# CELL(abcABC):   14.00143    14.00143    14.00143    90.00000    90.00000    90.00000  Step:        2360  Bead:       0 x_centroid{angstrom}  cell{angstrom}
       O  8.23179e-01 -1.17088e+00 -8.43572e-01
       O  2.68295e+00 -6.21832e-01  5.16663e-01
       H  7.87396e-01 -2.00973e+00 -1.25830e+00
       H  1.79800e+00 -7.57663e-01 -2.59886e-01
       H  2.68774e+00 -4.03846e-01  1.45763e+00
       H  3.50860e+00 -1.05570e+00  2.41267e-01
       H -6.92821e-02 -7.91292e-01 -6.28010e-01
7
# CELL(abcABC):   14.00143    14.00143    14.00143    90.00000    90.00000    90.00000  Step:        2400  Bead:       0 x_centroid{angstrom}  cell{angstrom}
       O  8.10743e-01 -1.14240e+00 -8.41407e-01