7
# CELL(abcABC):   14.00143    14.00143    14.00143    90.00000    90.00000    90.00000  Step:           0  Bead:       0 positions{angstrom}  cell{angstrom}
       O  5.72211e-01 -8.20992e-01 -3.40858e-01
       O  2.93099e+00 -1.00086e+00  3.45000e-02
       H  1.15544e-01 -1.32891e+00 -1.03000e+00
       H  1.75146e+00 -9.10942e-01 -1.52650e-01
       H  3.30479e+00 -1.55124e+00  7.40818e-01
       H  3.58125e+00 -5.33487e-01 -5.13365e-01
       H  5.91684e-03 -2.31237e-01  1.81684e-01
7
# CELL(abcABC):   14.00143    14.00143    14.00143    90.00000    90.00000    90.00000  Step:         400  Bead:       0 positions{angstrom}  cell{angstrom}
       O  5.53296e-01 -9.24458e-01 -1.06017e-01
       O  2.93126e+00 -9.11943e-01 -2.24809e-01
       H  7.14842e-02 -1.32191e+00 -7.76653e-01
       H  1.59982e+00 -8.52325e-01 -1.80308e-01
       H  3.44931e+00 -7.91254e-01  5.77999e-01
       H  3.48143e+00 -1.34477e+00 -9.02792e-01
       H  8.61854e-02 -2.27654e-01  3.78265e-01
7
# CELL(abcABC):   14.00143    14.00143    14.00143    90.00000    90.00000    90.00000  Step:         800  Bead:       0 positions{angstrom}  cell{angstrom}
       O  5.86568e-01 -1.20113e+00  1.25966e-01
       O  2.88397e+00 -6.32437e-01 -4.17551e-01
       H -8.83267e-02 -1.34872e+00 -6.78319e-01
       H  1.78689e+00 -9.21350e-01 -3.07129e-04
       H  3.24470e+00  2.77971e-01 -3.06100e-01
       H  3.67020e+00 -1.22422e+00 -5.42408e-01
       H  2.83459e-01 -1.35300e+00  1.10833e+00
7
# CELL(abcABC):   14.00143    14.00143    14.00143    90.00000    90.00000    90.00000  Step:        1200  Bead:       0 positions{angstrom}  cell{angstrom}
       O  5.94276e-01 -1.25323e+00  5.38081e-02
       O  2.87102e+00 -5.79159e-01 -3.48206e-01
       H  1.06945e-01 -1.68847e+00 -7.40363e-01
       H  1.74262e+00 -8.27018e-01 -3.32373e-02
       H  3.29018e+00  1.80691e-01 -7.76835e-01
       H  3.52795e+00 -1.19498e+00  9.05036e-02
       H -1.38660e-01 -1.06805e+00  6.97846e-01
7
# CELL(abcABC):   14.00143    14.00143    14.00143    90.00000    90.00000    90.00000  Step:        1600  Bead:       0 positions{angstrom}  cell{angstrom}
       O  6.41038e-01 -1.50466e+00 -1.95807e-01
       O  2.87571e+00 -3.69511e-01 -8.46686e-02
       H  3.07531e-01 -1.84029e+00 -1.05830e+00
       H  1.79015e+00 -8.30086e-01 -3.22582e-01
       H  2.77697e+00  6.55511e-01 -2.30724e-01
       H  3.66981e+00 -7.57491e-01 -4.31551e-01
       H -5.15210e-02 -1.30348e+00  4.09862e-01
7
# CELL(abcABC):   14.00143    14.00143    14.00143    90.00000    90.00000    90.00000  Step:        2000  Bead:       0 positions{angstrom}  cell{angstrom}
       O  7.24218e-01 -1.41448e+00 -5.78062e-01
       O  2.76170e+00 -3.96201e-01  3.17106e-01
       H  6.52866e-01 -2.17630e+00 -1.29136e+00
       H  1.52877e+00 -9.83084e-01 -1.42577e-01
       H  2.75421e+00 -3.66043e-02  1.16687e+00
       H  3.53906e+00 -1.85205e-01 -3.50131e-01
       H -6.31135e-02 -1.46930e+00 -4.40897e-02
7
# CELL(abcABC):   14.00143    14.00143    14.00143    90.00000    90.00000    90.00000  Step:        2400  Bead:       0 positions{angstrom}  cell{angstrom}
       O  8.43239e-01 -1.17833e+00 -8.35297e-01
       O  2.71431e+00 -6.27462e-01  5.30059e-01
       H  7.18903e-01 -1.97427e+00 -1.25520e+00
       H  1.72804e+00 -9.13418e-01 -4.08645e-01
       H  2.38015e+00 -3.77409e-01  1.34893e+00
       H  3.33287e+00 -1.31552e+00  4.31064e-01
       H -1.19669e-02 -7.49896e-01 -6.53782e-01
7
# CELL(abcABC):   14.00143    14.00143    14.00143    90.00000    90.00000    90.00000  Step:        2800  Bead:       0 positions{angstrom}  cell{angstrom}
       O  8.60534e-01 -9.01813e-01 -9.33947e-01
       O  2.67924e+00 -9.55382e-01  5.93517e-01
       H  3.32981e-01 -1.22812e+00 -1.71686e+00
       H  1.73160e+00 -1.00965e+00 -3.71334e-01
       H  3.50286e+00 -4.59023e-01  7.57087e-01
       H  2.29703e+00 -1.02328e+00  1.53956e+00
       H  1.87646e-01 -7.89598e-01 -1.42248e-01
7
# CELL(abcABC):   14.00143    14.00143    14.00143    90.00000    90.00000    90.00000  Step:        3200  Bead:       0 positions{angstrom}  cell{angstrom}
       O  8.83122e-01 -9.71495e-01 -9.86526e-01
       O  2.65653e+00 -8.95797e-01  6.80612e-01
       H  9.83805e-01 -9.54344e-01 -1.97138e+00
       H  1.76709e+00 -1.14716e+00  6.46669e-02
       H  2.63395e+00 -1.28002e+00  1.55612e+00
       H  3.03795e+00  2.38222e-02  6.79832e-01
       H  1.25386e-02 -8.23404e-01 -6.99784e-01
7
# CELL(abcABC):   14.00143    14.00143    14.00143    90.00000    90.00000    90.00000  Step:        3600  Bead:       0 positions{angstrom}  cell{angstrom}
       O  7.93573e-01 -1.13705e+00 -9.01137e-01
       O  2.74201e+00 -7.15218e-01  5.91609e-01
       H  4.74751e-01 -6.14055e-01 -1.59279e+00
       H  1.85092e+00 -9.20768e-01 -1.06191e-02
       H  3.21804e+00 -1.34553e+00  1.14692e+00
       H  3.30831e+00  1.04347e-01  2.58473e-01
       H  2.03825e-01 -2.01145e+00 -7.44638e-01
7
# CELL(abcABC):   14.00143    14.00143    14.00143    90.00000    90.00000    90.00000  Step:        4000  Bead:       0 positions{angstrom}  cell{angstrom}
       O  9.30041e-01 -1.57935e+00 -8.11459e-01
       O  2.58968e+00 -2.62250e-01  5.44152e-01
       H  6.79485e-01 -6.17196e-01 -1.16575e+00
       H  1.78192e+00 -1.04302e+00 -5.17376e-02
       H  2.64886e+00 -4.40886e-01  1.48193e+00
       H  2.84569e+00  6.98549e-01  2.89032e-01
       H  9.57071e-01 -2.58686e+00 -1.09259e+00
7
# CELL(abcABC):   14.00143    14.00143    14.00143    90.00000    90.00000    90.00000  Step:        4400  Bead:       0 positions{angstrom}  cell{angstrom}
       O  1.34977e+00 -1.85407e+00 -8.33385e-01
       O  2.23746e+00 -2.11373e-03  5.40982e-01
       H  1.11190e+00 -1.70275e+00 -1.76372e+00
       H  1.86647e+00 -8.12341e-01  1.77539e-02
       H  2.78196e+00 -2.73664e-01  1.27624e+00
       H  2.26425e+00  9.08946e-01  9.75863e-02
       H  9.31368e-01 -2.47427e+00 -3.87411e-01
7
# CELL(abcABC):   14.00143    14.00143    14.00143    90.00000    90.00000    90.00000  Step:        4800  Bead:       0 positions{angstrom}  cell{angstrom}
       O  1.27972e+00 -1.72655e+00 -9.42227e-01
       O  2.25614e+00 -7.53152e-02  6.22256e-01
       H  9.85989e-01 -1.40862e+00 -1.81738e+00
       H  2.00411e+00 -8.55147e-01 -3.29615e-01
       H  3.12520e+00  3.58071e-01  3.09720e-01
       H  2.40853e+00 -5.49189e-01  1.58464e+00
       H  5.40573e-01 -2.40441e+00 -5.70565e-01
7
# CELL(abcABC):   14.00143    14.00143    14.00143    90.00000    90.00000    90.00000  Step:        5200  Bead:       0 positions{angstrom}  cell{angstrom}
       O  1.08314e+00 -1.59694e+00 -9.03050e-01
       O  2.49659e+00 -2.07392e-01  5.88188e-01
       H  5.27895e-01 -1.52352e+00 -1.62392e+00
       H  1.62727e+00 -5.89744e-01 -1.00899e-01
       H  2.76627e+00  7.60987e-01  6.58181e-01
       H  3.16983e+00 -8.40188e-01  6.40421e-01
       H  7.45159e-01 -2.18254e+00 -1.57335e-01
7
# CELL(abcABC):   14.00143    14.00143    14.00143    90.00000    90.00000    90.00000  Step:        5600  Bead:       0 positions{angstrom}  cell{angstrom}
       O  1.04430e+00 -1.48604e+00 -8.76753e-01
       O  2.45746e+00 -3.33647e-01  5.63757e-01
       H  1.94191e-01 -1.15012e+00 -1.28029e+00
       H  1.61796e+00 -9.84356e-01 -1.44201e-01
       H  2.20475e+00  3.59246e-01  1.17324e+00
       H  3.43158e+00 -4.19357e-01  3.34910e-01
       H  1.24874e+00 -2.38090e+00 -1.02346e+00
7
# CELL(abcABC):   14.00143    14.00143    14.00143    90.00000    90.00000    90.00000  Step:        6000  Bead:       0 positions{angstrom}  cell{angstrom}
       O  1.06740e+00 -1.43805e+00 -9.30129e-01
       O  2.38146e+00 -4.08112e-01  6.62392e-01
       H  5.90080e-01 -6.85311e-01 -1.26880e+00
       H  1.86190e+00 -9.22734e-01 -1.84863e-01
       H  2.88791e+00 -1.10244e+00  1.12664e+00
       H  2.78251e+00  5.77300e-01  5.04842e-01
       H  9.93739e-01 -2.36838e+00 -1.33198e+00
7
# CELL(abcABC):   14.00143    14.00143    14.00143    90.00000    90.00000    90.00000  Step:        6400  Bead:       0 positions{angstrom}  cell{angstrom}
       O  1.27638e+00 -1.68605e+00 -9.68548e-01
       O  2.22425e+00 -1.27379e-01  6.44126e-01
       H  1.69959e+00 -1.94677e+00 -1.83957e+00
       H  1.90373e+00 -9.64261e-01  2.41062e-02
       H  2.68740e+00 -7.42027e-01  1.33989e+00
       H  2.22988e+00  9.14088e-01  4.48021e-01
       H  6.46229e-01 -2.40338e+00 -7.75351e-01
7
# CELL(abcABC):   14.00143    14.00143    14.00143    90.00000    90.00000    90.00000  Step:        6800  Bead:       0 positions{angstrom}  cell{angstrom}
       O  1.64460e+00 -1.98802e+00 -7.18174e-01
       O  1.84315e+00  1.30234e-01  3.98810e-01
       H  1.90777e+00 -2.82646e+00 -3.70435e-01
       H  1.65515e+00 -1.14737e+00 -1.08434e-01
       H  2.11288e+00  3.75990e-01  1.31523e+00
       H  2.08972e+00  9.34374e-01 -9.42930e-02
       H  9.13026e-01 -2.08526e+00 -1.49856e+00
7
# CELL(abcABC):   14.00143    14.00143    14.00143    90.00000    90.00000    90.00000  Step:        7200  Bead:       0 positions{angstrom}  cell{angstrom}
       O  1.64798e+00 -2.09994e+00 -4.41960e-01
       O  1.90757e+00  2.94064e-01  1.58304e-01
       H  1.74226e+00 -2.87325e+00  1.82754e-01
       H  1.73317e+00 -1.04988e+00 -1.83925e-01
       H  1.72810e+00  9.40231e-01  1.11983e+00
       H  2.52919e+00  8.68481e-01 -2.76002e-01
       H  1.08381e+00 -2.26231e+00 -1.09311e+00
7
# CELL(abcABC):   14.00143    14.00143    14.00143    90.00000    90.00000    90.00000  Step:        7600  Bead:       0 positions{angstrom}  cell{angstrom}
       O  1.93516e+00 -2.04281e+00 -1.88340e-01
       O  1.58631e+00  3.19792e-01 -1.10571e-01
       H  2.22666e+00 -2.59966e+00  5.24784e-01
       H  1.72594e+00 -9.02337e-01 -2.36169e-01
       H  1.04637e+00  8.02677e-01  5.56737e-01
       H  2.21844e+00  7.40541e-01 -8.36477e-01
       H  1.24204e+00 -2.70092e+00 -6.51780e-01
7
# CELL(abcABC):   14.00143    14.00143    14.00143    90.00000    90.00000    90.00000  Step:        8000  Bead:       0 positions{angstrom}  cell{angstrom}
       O  2.30991e+00 -1.96316e+00  1.10840e-01
       O  1.19709e+00  1.77795e-01 -4.75839e-01
       H  3.23791e+00 -1.59235e+00  3.35543e-01
       H  1.78465e+00 -1.16206e+00 -9.30153e-02
       H  1.76088e+00  9.93185e-01 -1.72214e-01
       H  3.97641e-01  1.66623e-01 -8.83976e-01
       H  2.01004e+00 -2.86845e+00  8.94313e-02
7
# CELL(abcABC):   14.00143    14.00143    14.00143    90.00000    90.00000    90.00000  Step:        8400  Bead:       0 positions{angstrom}  cell{angstrom}
       O  2.46773e+00 -1.81771e+00  1.69793e-01
       O  1.06127e+00 -1.10929e-02 -4.76252e-01
       H  3.27757e+00 -1.74286e+00  7.92224e-01
       H  1.82185e+00 -1.05422e+00 -1.55561e-01
       H  2.58092e-01 -5.11632e-02 -1.10088e+00
       H  9.59255e-01  7.89283e-01  1.62096e-01
       H  2.80544e+00 -2.51953e+00 -4.53020e-01
7
# CELL(abcABC):   14.00143    14.00143    14.00143    90.00000    90.00000    90.00000  Step:        8800  Bead:       0 positions{angstrom}  cell{angstrom}
       O  2.53608e+00 -1.62928e+00  4.24298e-01
       O  9.55105e-01 -2.04562e-01 -7.49152e-01
       H  2.90827e+00 -1.37250e+00  1.17980e+00
       H  1.74849e+00 -9.41438e-01 -1.94331e-01
       H -1.52682e-02 -3.74508e-01 -5.64520e-01
       H  1.12570e+00  6.52401e-01 -5.73366e-01
       H  2.89488e+00 -2.31215e+00 -9.85822e-02
7
# CELL(abcABC):   14.00143    14.00143    14.00143    90.00000    90.00000    90.00000  Step:        9200  Bead:       0 positions{angstrom}  cell{angstrom}
       O  2.51608e+00 -1.38368e+00  6.40649e-01
       O  9.10598e-01 -4.22358e-01 -9.76000e-01
       H  3.19292e+00 -9.51212e-01  1.29020e+00
       H  1.63890e+00 -7.18979e-01 -2.53269e-01
       H  4.05579e-01 -1.10541e+00 -1.50546e+00
       H  9.17068e-01  5.89240e-01 -1.17947e+00
       H  2.95672e+00 -2.25525e+00  6.73900e-01
7
# CELL(abcABC):   14.00143    14.00143    14.00143    90.00000    90.00000    90.00000  Step:        9600  Bead:       0 positions{angstrom}  cell{angstrom}
       O  2.56299e+00 -1.36058e+00  5.42565e-01
       O  9.43793e-01 -3.93475e-01 -8.75694e-01
       H  3.46524e+00 -1.22302e+00  8.64956e-01
       H  1.99848e+00 -9.29111e-01 -3.41741e-01
       H  9.90015e-02 -8.97366e-01 -1.15625e+00
       H  8.99779e-01  5.75630e-01 -1.05603e+00
       H  1.99128e+00 -1.87325e+00  1.34565e+00
7
# CELL(abcABC):   14.00143    14.00143    14.00143    90.00000    90.00000    90.00000  Step:       10000  Bead:       0 positions{angstrom}  cell{angstrom}
       O  2.53572e+00 -1.54844e+00  4.93594e-01
       O  9.72247e-01 -2.17421e-01 -7.74961e-01
       H  3.41643e+00 -1.80245e+00  3.81358e-01
       H  1.77801e+00 -6.97026e-01 -3.70852e-01
       H  2.78436e-01  9.21153e-02 -1.53504e-01
       H  1.04711e+00  1.33126e-01 -1.64370e+00
       H  2.35301e+00 -1.50304e+00  1.42603e+00
7
# CELL(abcABC):   14.00143    14.00143    14.00143    90.00000    90.00000    90.00000  Step:       10400  Bead:       0 positions{angstrom}  cell{angstrom}
       O  2.31988e+00 -1.79573e+00  5.14994e-01
       O  1.19526e+00 -8.59686e-03 -7.90699e-01
       H  2.54979e+00 -2.76583e+00  8.69086e-02
       H  1.80996e+00 -9.04373e-01 -2.03832e-01
       H  1.14386e+00  9.47554e-01 -5.49124e-01
       H  8.61383e-01 -2.58389e-01 -1.77943e+00
       H  2.41455e+00 -1.59225e+00  1.48560e+00
7
# CELL(abcABC):   14.00143    14.00143    14.00143    90.00000    90.00000    90.00000  Step:       10800  Bead:       0 positions{angstrom}  cell{angstrom}
       O  2.13662e+00 -1.64880e+00  6.52168e-01
       O  1.40617e+00 -2.29375e-01 -9.97933e-01
       H  1.53407e+00 -2.37705e+00  5.32535e-01
       H  2.06154e+00 -7.98640e-01 -7.63828e-02
       H  4.67220e-01  2.47635e-01 -7.58878e-01
       H  1.68247e+00  3.95621e-01 -1.77719e+00
       H  2.97945e+00 -1.71037e+00  1.23243e+00
7
# CELL(abcABC):   14.00143    14.00143    14.00143    90.00000    90.00000    90.00000  Step:       11200  Bead:       0 positions{angstrom}  cell{angstrom}
       O  2.26318e+00 -1.59450e+00  6.86172e-01
       O  1.29348e+00 -2.95038e-01 -1.05662e+00
       H  1.59104e+00 -2.16639e+00  9.64403e-01
       H  1.80649e+00 -9.97149e-01 -2.23654e-01
       H  3.18539e-01 -6.20278e-01 -1.43242e+00
       H  1.56084e+00  6.10528e-01 -1.45174e+00
       H  2.99600e+00 -1.35319e+00  1.39482e+00
7
# CELL(abcABC):   14.00143    14.00143    14.00143    90.00000    90.00000    90.00000  Step:       11600  Bead:       0 positions{angstrom}  cell{angstrom}
       O  2.18858e+00 -1.52027e+00  8.44014e-01
       O  1.33508e+00 -2.95173e-01 -1.19540e+00
       H  1.39574e+00 -1.84525e+00  1.26463e+00
       H  1.80188e+00 -9.31363e-01 -2.49379e-01
       H  1.65264e+00 -3.39707e-01 -2.13509e+00
       H  4.08264e-01  2.99846e-02 -1.18625e+00
       H  2.95453e+00 -1.61974e+00  1.36436e+00
7
# CELL(abcABC):   14.00143    14.00143    14.00143    90.00000    90.00000    90.00000  Step:       12000  Bead:       0 positions{angstrom}  cell{angstrom}
       O  2.08313e+00 -1.35162e+00  9.08446e-01
       O  1.38612e+00 -5.03226e-01 -1.23922e+00
       H  1.82057e+00 -1.09176e+00  1.82123e+00
       H  1.76392e+00 -8.96363e-01  3.65203e-03
       H  1.82094e+00  2.83197e-01 -1.55820e+00
       H  3.96959e-01 -5.90302e-01 -1.38255e+00
       H  3.06263e+00 -1.65135e+00  8.76819e-01
7
# CELL(abcABC):   14.00143    14.00143    14.00143    90.00000    90.00000    90.00000  Step:       12400  Bead:       0 positions{angstrom}  cell{angstrom}
       O  2.19036e+00 -1.23887e+00  9.77557e-01
       O  1.36739e+00 -5.72534e-01 -1.27823e+00
       H  1.71646e+00 -9.06585e-01  1.75300e+00
       H  1.65932e+00 -9.65687e-01 -2.19655e-01
       H  1.82987e+00  4.96313e-02 -1.67706e+00
       H  5.15667e-01 -9.55006e-01 -1.55808e+00
       H  3.12394e+00 -1.31854e+00  1.06997e+00
7
# CELL(abcABC):   14.00143    14.00143    14.00143    90.00000    90.00000    90.00000  Step:       12800  Bead:       0 positions{angstrom}  cell{angstrom}
       O  2.26270e+00 -1.22557e+00  8.62493e-01
       O  1.25480e+00 -5.24615e-01 -1.21628e+00
       H  1.85775e+00 -7.40762e-01  1.68899e+00
       H  1.87234e+00 -8.34778e-01 -2.67718e-01
       H  1.57153e+00  2.96523e-01 -1.78567e+00
       H  4.40100e-01 -1.07151e+00 -1.37183e+00
       H  3.18842e+00 -1.49796e+00  1.09377e+00
7
# CELL(abcABC):   14.00143    14.00143    14.00143    90.00000    90.00000    90.00000  Step:       13200  Bead:       0 positions{angstrom}  cell{angstrom}
       O  2.16554e+00 -1.43873e+00  8.31360e-01
       O  1.27431e+00 -3.55130e-01 -1.17751e+00
       H  1.58142e+00 -1.30673e+00  1.58915e+00
       H  1.89825e+00 -8.42936e-01 -2.22046e-01
       H  1.26259e+00  5.18557e-01 -1.50135e+00
       H  7.69722e-01 -1.09118e+00 -1.82430e+00
       H  3.02386e+00 -1.78168e+00  1.08313e+00
7
# CELL(abcABC):   14.00143    14.00143    14.00143    90.00000    90.00000    90.00000  Step:       13600  Bead:       0 positions{angstrom}  cell{angstrom}
       O  2.26721e+00 -1.42381e+00  8.34579e-01
       O  1.29168e+00 -3.14404e-01 -1.09141e+00
       H  1.94789e+00 -1.17565e+00  1.68371e+00
       H  1.67703e+00 -8.57090e-01 -9.65585e-02
       H  4.55470e-01  2.75513e-02 -1.07462e+00
       H  1.48487e+00 -8.06317e-01 -1.89768e+00
       H  2.74351e+00 -2.25873e+00  8.19805e-01
7
# CELL(abcABC):   14.00143    14.00143    14.00143    90.00000    90.00000    90.00000  Step:       14000  Bead:       0 positions{angstrom}  cell{angstrom}
       O  2.35446e+00 -1.46324e+00  7.71990e-01
       O  1.18038e+00 -2.73803e-01 -9.92792e-01
       H  1.64937e+00 -2.12352e+00  8.39812e-01
       H  1.94915e+00 -7.76695e-01 -1.36660e-01
       H  2.48855e-01 -7.75274e-01 -1.15583e+00
       H  1.56841e+00 -2.97699e-01 -1.93651e+00
       H  3.28229e+00 -1.53610e+00  9.07922e-01
7
# CELL(abcABC):   14.00143    14.00143    14.00143    90.00000    90.00000    90.00000  Step:       14400  Bead:       0 positions{angstrom}  cell{angstrom}
       O  2.32110e+00 -1.63762e+00  6.14351e-01
       O  1.17264e+00 -1.21484e-01 -9.25239e-01
       H  1.97242e+00 -2.49740e+00  4.33568e-01
       H  1.58786e+00 -9.82367e-01 -4.63170e-01
       H  8.76551e-01 -7.42485e-01 -1.63867e+00
       H  1.39693e+00  8.59706e-01 -1.28592e+00
       H  3.27117e+00 -1.45417e+00  8.41848e-01
7
# CELL(abcABC):   14.00143    14.00143    14.00143    90.00000    90.00000    90.00000  Step:       14800  Bead:       0 positions{angstrom}  cell{angstrom}
       O  2.20860e+00 -1.56004e+00  7.88668e-01
       O  1.30794e+00 -2.29445e-01 -1.15049e+00
       H  2.00722e+00 -1.65863e+00  1.85168e+00
       H  1.67934e+00 -9.84797e-01 -1.93999e-02
       H  5.38428e-01 -3.49368e-01 -1.78777e+00
       H  1.71737e+00  6.18351e-01 -1.39295e+00
       H  2.52729e+00 -2.43926e+00  3.17068e-01
7
# CELL(abcABC):   14.00143    14.00143    14.00143    90.00000    90.00000    90.00000  Step:       15200  Bead:       0 positions{angstrom}  cell{angstrom}
       O  1.98649e+00 -1.71468e+00  7.47923e-01
       O  1.47895e+00 -8.36403e-02 -1.03490e+00
       H  1.69399e+00 -1.64932e+00  1.62203e+00
       H  1.77480e+00 -8.56483e-01 -2.59680e-01
       H  1.71777e+00 -2.26011e-01 -1.87307e+00
       H  1.44827e+00  8.94479e-01 -8.05444e-01
       H  2.50518e+00 -2.60608e+00  5.68469e-01
7
# CELL(abcABC):   14.00143    14.00143    14.00143    90.00000    90.00000    90.00000  Step:       15600  Bead:       0 positions{angstrom}  cell{angstrom}
       O  2.05374e+00 -1.79209e+00  5.50438e-01
       O  1.40297e+00 -8.05954e-02 -8.81909e-01
       H  2.00100e+00 -1.75604e+00  1.54365e+00
       H  1.93662e+00 -7.95115e-01 -1.63219e-01
       H  2.02830e+00  6.34046e-01 -1.20329e+00
       H  5.03365e-01  2.63410e-01 -9.89161e-01
       H  2.23555e+00 -2.82401e+00  3.43439e-01
7
# CELL(abcABC):   14.00143    14.00143    14.00143    90.00000    90.00000    90.00000  Step:       16000  Bead:       0 positions{angstrom}  cell{angstrom}
       O  2.32011e+00 -1.69963e+00  4.98348e-01
       O  1.12154e+00 -9.67225e-02 -8.46031e-01
       H  2.66899e+00 -1.75597e+00  1.43944e+00
       H  1.91317e+00 -9.04720e-01 -4.46688e-02
       H  1.61472e+00  6.44344e-01 -7.23603e-01
       H  5.55979e-01 -3.23524e-01 -1.43896e+00
       H  2.26131e+00 -2.61978e+00  1.65378e-01
7
# CELL(abcABC):   14.00143    14.00143    14.00143    90.00000    90.00000    90.00000  Step:       16400  Bead:       0 positions{angstrom}  cell{angstrom}
       O  2.13750e+00 -1.75319e+00  6.41210e-01
       O  1.43685e+00 -5.39723e-02 -1.00824e+00
       H  2.78537e+00 -1.61749e+00  1.40480e+00
       H  1.93344e+00 -9.76544e-01 -3.46739e-01
       H  1.65154e+00  8.45177e-01 -8.22241e-01
       H  1.10382e+00 -2.31830e-01 -1.89880e+00
       H  1.49448e+00 -2.50937e+00  7.54080e-01
7
# CELL(abcABC):   14.00143    14.00143    14.00143    90.00000    90.00000    90.00000  Step:       16800  Bead:       0 positions{angstrom}  cell{angstrom}
       O  1.87987e+00 -1.70743e+00  8.11216e-01
       O  1.59974e+00 -9.55092e-02 -1.07132e+00
       H  2.84940e+00 -1.58240e+00  1.07674e+00
       H  1.62694e+00 -8.27340e-01 -2.52303e-01
       H  2.00444e+00  8.11106e-01 -8.00362e-01
       H  1.53154e+00 -4.02680e-01 -1.97999e+00
       H  1.48395e+00 -2.65319e+00  6.27853e-01
7
# CELL(abcABC):   14.00143    14.00143    14.00143    90.00000    90.00000    90.00000  Step:       17200  Bead:       0 positions{angstrom}  cell{angstrom}
       O  2.04588e+00 -1.62727e+00  8.02483e-01
       O  1.46924e+00 -2.11520e-01 -1.01874e+00
       H  1.74550e+00 -1.33736e+00  1.66837e+00
       H  1.61571e+00 -1.20631e+00 -2.29686e-01
       H  1.94219e+00  5.84032e-01 -8.51697e-01
       H  1.29111e+00 -4.74641e-01 -1.93555e+00
       H  2.80905e+00 -2.20489e+00  9.66981e-01
7
# CELL(abcABC):   14.00143    14.00143    14.00143    90.00000    90.00000    90.00000  Step:       17600  Bead:       0 positions{angstrom}  cell{angstrom}
       O  2.07674e+00 -1.54477e+00  7.83980e-01
       O  1.41051e+00 -2.91333e-01 -1.11023e+00
       H  1.93717e+00 -1.29007e+00  1.69488e+00
       H  1.44347e+00 -9.69690e-01 -2.20126e-01
       H  1.18295e+00  5.97098e-01 -1.36108e+00
       H  1.67683e+00 -6.69580e-01 -1.97524e+00
       H  2.81246e+00 -2.12997e+00  8.61076e-01
7
# CELL(abcABC):   14.00143    14.00143    14.00143    90.00000    90.00000    90.00000  Step:       18000  Bead:       0 positions{angstrom}  cell{angstrom}
       O  2.47692e+00 -1.53759e+00  6.23997e-01
       O  1.02009e+00 -3.25133e-01 -9.48798e-01
       H  2.24880e+00 -1.66062e+00  1.64850e+00
       H  1.83462e+00 -1.05164e+00 -2.27131e-01
       H  8.87151e-02 -1.09189e-01 -8.53900e-01
       H  1.38913e+00  2.86739e-01 -1.72777e+00
       H  3.30146e+00 -1.98859e+00  3.51455e-01
7
# CELL(abcABC):   14.00143    14.00143    14.00143    90.00000    90.00000    90.00000  Step:       18400  Bead:       0 positions{angstrom}  cell{angstrom}
       O  2.51769e+00 -1.33197e+00  6.42273e-01
       O  9.50874e-01 -5.04908e-01 -1.00657e+00
       H  2.57344e+00 -2.11102e+00  1.26740e+00
       H  1.65137e+00 -9.92308e-01 -1.51618e-01
       H  5.50585e-01  3.39639e-01 -9.37899e-01
       H  1.21880e+00 -6.41405e-01 -1.95915e+00
       H  3.45253e+00 -9.05580e-01  4.71991e-01
7
# CELL(abcABC):   14.00143    14.00143    14.00143    90.00000    90.00000    90.00000  Step:       18800  Bead:       0 positions{angstrom}  cell{angstrom}
       O  2.59211e+00 -1.16965e+00  6.51634e-01
       O  9.07102e-01 -6.29824e-01 -1.00402e+00
       H  2.97997e+00 -2.09011e+00  9.19248e-01
       H  1.82384e+00 -1.05701e+00 -1.32870e-01
       H  3.59906e-01  1.11057e-01 -1.03597e+00
       H  9.04181e-01 -1.03609e+00 -1.84628e+00
       H  3.02050e+00 -3.94539e-01  1.13155e+00
7
# CELL(abcABC):   14.00143    14.00143    14.00143    90.00000    90.00000    90.00000  Step:       19200  Bead:       0 positions{angstrom}  cell{angstrom}
       O  2.44796e+00 -1.40467e+00  6.73388e-01
       O  1.12935e+00 -4.37996e-01 -9.92020e-01
       H  3.37216e+00 -1.33397e+00  5.10193e-01
       H  1.73690e+00 -7.50060e-01 -5.52797e-02
       H  5.89076e-01  4.27646e-01 -7.61686e-01
       H  1.06466e+00 -1.04774e+00 -1.72777e+00
       H  2.14905e+00 -1.59556e+00  1.51736e+00
7
# CELL(abcABC):   14.00143    14.00143    14.00143    90.00000    90.00000    90.00000  Step:       19600  Bead:       0 positions{angstrom}  cell{angstrom}
       O  2.13805e+00 -1.65222e+00  7.40284e-01
       O  1.43303e+00 -1.49813e-01 -1.08080e+00
       H  2.27449e+00 -1.33296e+00  1.74628e+00
       H  1.92529e+00 -7.29654e-01 -2.18987e-02
       H  4.84329e-01 -5.03317e-02 -1.31188e+00
       H  2.15307e+00  1.21661e-02 -1.71374e+00
       H  2.40512e+00 -2.46898e+00  3.22192e-01
7
# CELL(abcABC):   14.00143    14.00143    14.00143    90.00000    90.00000    90.00000  Step:       20000  Bead:       0 positions{angstrom}  cell{angstrom}
       O  1.99322e+00 -1.83919e+00  5.79051e-01
       O  1.48815e+00 -2.93157e-02 -8.47043e-01
       H  2.34147e+00 -1.53725e+00  1.48815e+00
       H  1.68818e+00 -7.83178e-01 -9.46173e-02
       H  1.01518e+00 -4.86105e-01 -1.49776e+00
       H  9.15277e-01  6.67206e-01 -3.20993e-01
       H  2.56177e+00 -2.50637e+00 -7.32037e-02
7
# CELL(abcABC):   14.00143    14.00143    14.00143    90.00000    90.00000    90.00000  Step:       20400  Bead:       0 positions{angstrom}  cell{angstrom}
       O  2.11129e+00 -1.91650e+00  4.23246e-01
       O  1.41800e+00  1.24104e-01 -6.58605e-01
       H  2.97349e+00 -2.25406e+00  8.58613e-01
       H  1.62869e+00 -9.07077e-01 -9.58601e-02
       H  2.12560e+00  2.82560e-01 -1.32566e+00
       H  5.30929e-01  4.50445e-01 -9.59527e-01
       H  1.37663e+00 -2.57565e+00  6.31572e-01
7
# CELL(abcABC):   14.00143    14.00143    14.00143    90.00000    90.00000    90.00000  Step:       20800  Bead:       0 positions{angstrom}  cell{angstrom}
       O  2.18420e+00 -1.90099e+00  3.03936e-01
       O  1.35664e+00  1.00958e-01 -5.59012e-01
       H  3.01182e+00 -2.22235e+00  1.65141e-01
       H  1.76895e+00 -7.10707e-01 -1.48495e-01
       H  1.75664e+00  8.72382e-01 -8.99511e-01
       H  6.10041e-01  1.98689e-02 -1.17633e+00
       H  1.72555e+00 -2.57264e+00  8.87751e-01
7
# CELL(abcABC):   14.00143    14.00143    14.00143    90.00000    90.00000    90.00000  Step:       21200  Bead:       0 positions{angstrom}  cell{angstrom}
       O  2.15024e+00 -1.93750e+00  2.87538e-01
       O  1.40161e+00  1.82250e-01 -6.00180e-01
       H  2.95811e+00 -2.23263e+00  5.04354e-01
       H  1.75103e+00 -8.10601e-01 -1.41165e-01
       H  1.38756e+00  8.38238e-01  1.76025e-01
       H  9.16903e-01  2.60974e-01 -1.38757e+00
       H  1.50736e+00 -2.68039e+00  3.77477e-01
7
# CELL(abcABC):   14.00143    14.00143    14.00143    90.00000    90.00000    90.00000  Step:       21600  Bead:       0 positions{angstrom}  cell{angstrom}
       O  2.12064e+00 -1.92343e+00  3.79044e-01
       O  1.42362e+00  1.24633e-01 -6.24248e-01
       H  1.73744e+00 -2.13144e+00  1.32076e+00
       H  1.86159e+00 -7.43021e-01 -1.98043e-01
       H  7.68052e-01  7.18291e-01 -2.59817e-01
       H  1.21004e+00  5.14549e-02 -1.55923e+00
       H  2.25937e+00 -2.73333e+00 -1.89186e-01
7
# CELL(abcABC):   14.00143    14.00143    14.00143    90.00000    90.00000    90.00000  Step:       22000  Bead:       0 positions{angstrom}  cell{angstrom}
       O  1.94836e+00 -1.91194e+00  5.19893e-01
       O  1.48625e+00  8.32899e-02 -7.99654e-01
       H  1.48776e+00 -2.50098e+00  1.17683e+00
       H  1.84679e+00 -1.01359e+00 -4.88776e-02
       H  7.92729e-01  7.79630e-01 -4.91168e-01
       H  2.29704e+00  3.75412e-01 -1.32867e+00
       H  2.81780e+00 -2.32712e+00  3.24429e-01
7
# CELL(abcABC):   14.00143    14.00143    14.00143    90.00000    90.00000    90.00000  Step:       22400  Bead:       0 positions{angstrom}  cell{angstrom}
       O  1.83205e+00 -2.04583e+00  2.89102e-01
       O  1.65270e+00  1.82721e-01 -6.09486e-01
       H  1.72467e+00 -2.98304e+00 -1.56198e-02
       H  1.75010e+00 -8.98982e-01 -2.06742e-01
       H  1.07733e+00  9.16670e-01 -5.80346e-01
       H  2.38781e+00  5.47839e-01 -1.21122e+00
       H  2.17060e+00 -2.43340e+00  1.17708e+00
7
# CELL(abcABC):   14.00143    14.00143    14.00143    90.00000    90.00000    90.00000  Step:       22800  Bead:       0 positions{angstrom}  cell{angstrom}
       O  1.97923e+00 -2.06647e+00 -6.14247e-02
       O  1.49997e+00  2.29089e-01 -2.65089e-01
       H  2.25298e+00 -2.47527e+00 -8.36148e-01
       H  1.67110e+00 -9.33374e-01 -1.82746e-01
       H  1.85091e+00  6.33861e-01  4.70936e-01
       H  1.20458e+00  8.39934e-01 -1.09107e+00
       H  1.96575e+00 -2.69064e+00  5.57036e-01
7
# CELL(abcABC):   14.00143    14.00143    14.00143    90.00000    90.00000    90.00000  Step:       23200  Bead:       0 positions{angstrom}  cell{angstrom}
       O  2.22140e+00 -2.05289e+00 -1.35742e-01
       O  1.33941e+00  2.33775e-01 -2.50528e-01
       H  3.07727e+00 -2.28336e+00  7.49896e-02
       H  1.77336e+00 -9.44894e-01 -6.89009e-02
       H  1.31759e+00  9.49361e-01  4.04834e-01
       H  6.36090e-01  5.19718e-01 -9.37761e-01
       H  1.52173e+00 -2.70582e+00 -7.23711e-03
7
# CELL(abcABC):   14.00143    14.00143    14.00143    90.00000    90.00000    90.00000  Step:       23600  Bead:       0 positions{angstrom}  cell{angstrom}
       O  2.23886e+00 -1.96773e+00  1.96444e-01
       O  1.19534e+00  1.04533e-01 -5.59963e-01
       H  3.09186e+00 -2.24173e+00 -2.31983e-01
       H  1.72099e+00 -8.86852e-01 -1.38845e-01
       H  4.47386e-01  4.54262e-01 -8.60837e-02
       H  1.47221e+00  7.87309e-01 -1.22674e+00
       H  2.27669e+00 -2.41069e+00  1.12625e+00
7
# CELL(abcABC):   14.00143    14.00143    14.00143    90.00000    90.00000    90.00000  Step:       24000  Bead:       0 positions{angstrom}  cell{angstrom}
       O  2.26730e+00 -1.88210e+00  3.87934e-01
       O  1.14812e+00 -1.06193e-02 -7.23857e-01