7
# CELL(abcABC):   14.00143    14.00143    14.00143    90.00000    90.00000    90.00000  Step:           0  Bead:       6 positions{angstrom}  cell{angstrom}
       O  5.72211e-01 -8.20992e-01 -3.40858e-01
       O  2.93099e+00 -1.00086e+00  3.45000e-02
       H  1.15544e-01 -1.32891e+00 -1.03000e+00
       H  1.75146e+00 -9.10942e-01 -1.52650e-01
       H  3.30479e+00 -1.55124e+00  7.40818e-01
       H  3.58125e+00 -5.33487e-01 -5.13365e-01
       H  5.91684e-03 -2.31237e-01  1.81684e-01
7
# CELL(abcABC):   14.00143    14.00143    14.00143    90.00000    90.00000    90.00000  Step:         400  Bead:       6 positions{angstrom}  cell{angstrom}
       O  5.75998e-01 -9.25777e-01 -9.12857e-02
       O  2.91920e+00 -9.47582e-01 -1.89593e-01
       H  5.18803e-02 -1.36476e+00 -8.44126e-01
       H  1.76392e+00 -8.55952e-01 -1.33421e-01
       H  3.49251e+00 -5.66451e-01  5.15919e-01
       H  3.32638e+00 -1.52521e+00 -9.04223e-01
       H -1.34620e-01 -2.58250e-01  3.76683e-01
7
# CELL(abcABC):   14.00143    14.00143    14.00143    90.00000    90.00000    90.00000  Step:         800  Bead:       6 positions{angstrom}  cell{angstrom}
       O  5.48456e-01 -1.12992e+00  1.29583e-01
       O  2.94954e+00 -6.36169e-01 -4.47434e-01
       H  1.52308e-03 -1.40354e+00 -6.78569e-01
       H  1.73312e+00 -8.85431e-01  3.55308e-02
       H  3.22183e+00  3.27308e-01 -4.83487e-01
       H  3.49387e+00 -1.33065e+00 -8.25066e-01
       H  1.39844e-01 -1.30656e+00  9.46883e-01
7
# CELL(abcABC):   14.00143    14.00143    14.00143    90.00000    90.00000    90.00000  Step:        1200  Bead:       6 positions{angstrom}  cell{angstrom}
       O  5.90985e-01 -1.25009e+00  9.41415e-02
       O  2.93398e+00 -5.82854e-01 -3.76985e-01
       H  7.58318e-02 -1.61143e+00 -7.74137e-01
       H  1.69898e+00 -1.00098e+00  3.66822e-02
       H  3.40367e+00  1.94656e-01 -8.93461e-01
       H  3.68598e+00 -1.14187e+00 -1.67523e-01
       H -7.81169e-02 -1.05761e+00  6.52363e-01
7
# CELL(abcABC):   14.00143    14.00143    14.00143    90.00000    90.00000    90.00000  Step:        1600  Bead:       6 positions{angstrom}  cell{angstrom}
       O  6.63617e-01 -1.45328e+00 -2.10703e-01
       O  2.86272e+00 -3.74103e-01 -8.08313e-02
       H  2.19729e-01 -1.46329e+00 -1.09338e+00
       H  1.54259e+00 -9.42492e-01 -1.99793e-01
       H  2.75585e+00  5.44771e-01 -2.98807e-01
       H  3.75158e+00 -8.55439e-01 -3.83764e-01
       H  2.02147e-02 -1.47136e+00  5.23503e-01
7
# CELL(abcABC):   14.00143    14.00143    14.00143    90.00000    90.00000    90.00000  Step:        2000  Bead:       6 positions{angstrom}  cell{angstrom}
       O  7.43728e-01 -1.36113e+00 -6.18847e-01
       O  2.74983e+00 -4.16903e-01  3.20256e-01
       H  6.42482e-01 -1.94688e+00 -1.44171e+00
       H  1.65693e+00 -9.40464e-01 -2.63763e-01
       H  2.54158e+00 -1.95969e-01  1.22460e+00
       H  3.42141e+00 -6.67492e-02 -1.48097e-01
       H -1.24707e-01 -1.32031e+00 -1.51175e-01
7
# CELL(abcABC):   14.00143    14.00143    14.00143    90.00000    90.00000    90.00000  Step:        2400  Bead:       6 positions{angstrom}  cell{angstrom}
       O  7.84763e-01 -1.15615e+00 -8.32954e-01
       O  2.70370e+00 -6.68597e-01  5.69553e-01
       H  6.80295e-01 -1.94726e+00 -1.49361e+00
       H  1.86707e+00 -6.30360e-01 -4.05572e-01
       H  2.40813e+00 -1.85733e-01  1.35838e+00
       H  3.48448e+00 -1.25659e+00  3.82978e-01
       H -5.44127e-02 -9.15364e-01 -8.11900e-01
7
# CELL(abcABC):   14.00143    14.00143    14.00143    90.00000    90.00000    90.00000  Step:        2800  Bead:       6 positions{angstrom}  cell{angstrom}
       O  8.69402e-01 -9.09527e-01 -9.12820e-01
       O  2.64007e+00 -1.01213e+00  5.82486e-01
       H  7.92507e-01 -1.04363e+00 -1.86988e+00
       H  1.70961e+00 -8.67469e-01 -1.50014e-01
       H  3.54588e+00 -5.27996e-01  6.46404e-01
       H  2.25882e+00 -9.75370e-01  1.47695e+00
       H  1.12395e-01 -1.04148e+00 -3.11205e-01
7
# CELL(abcABC):   14.00143    14.00143    14.00143    90.00000    90.00000    90.00000  Step:        3200  Bead:       6 positions{angstrom}  cell{angstrom}
       O  8.75441e-01 -1.00547e+00 -1.02357e+00
       O  2.57345e+00 -9.20411e-01  6.51723e-01
       H  1.10858e+00 -6.87005e-01 -1.93917e+00
       H  1.71136e+00 -1.18736e+00 -9.38480e-02
       H  2.38330e+00 -1.43203e+00  1.51658e+00
       H  3.00113e+00 -7.22973e-02  8.28321e-01
       H  2.04267e-02 -8.11355e-01 -6.60352e-01
7
# CELL(abcABC):   14.00143    14.00143    14.00143    90.00000    90.00000    90.00000  Step:        3600  Bead:       6 positions{angstrom}  cell{angstrom}
       O  7.57522e-01 -1.08962e+00 -9.04861e-01
       O  2.73177e+00 -6.89167e-01  5.78971e-01
       H  6.92183e-01 -4.72135e-01 -1.60461e+00
       H  1.82735e+00 -1.00593e+00 -1.29958e-01
       H  3.20260e+00 -1.29095e+00  1.22035e+00
       H  2.96287e+00  2.05791e-01  4.32463e-01
       H  1.50117e-01 -1.87138e+00 -9.26508e-01
7
# CELL(abcABC):   14.00143    14.00143    14.00143    90.00000    90.00000    90.00000  Step:        4000  Bead:       6 positions{angstrom}  cell{angstrom}
       O  9.17759e-01 -1.52751e+00 -8.10803e-01
       O  2.63788e+00 -2.34661e-01  5.39081e-01
       H  6.99994e-01 -8.40607e-01 -1.28481e+00
       H  1.97442e+00 -1.11572e+00 -4.20911e-02
       H  2.67396e+00 -2.72676e-01  1.40166e+00
       H  2.83714e+00  7.62432e-01  1.55421e-01
       H  9.56381e-01 -2.49583e+00 -9.34503e-01
7
# CELL(abcABC):   14.00143    14.00143    14.00143    90.00000    90.00000    90.00000  Step:        4400  Bead:       6 positions{angstrom}  cell{angstrom}
       O  1.29361e+00 -1.78212e+00 -8.16555e-01
       O  2.21875e+00 -3.19289e-02  5.61973e-01
       H  1.23452e+00 -1.63164e+00 -1.89498e+00
       H  1.70623e+00 -9.09348e-01  1.53819e-01
       H  2.77162e+00 -4.69400e-02  1.27366e+00
       H  2.17462e+00  8.63317e-01  2.06593e-01
       H  7.71696e-01 -2.55662e+00 -4.54756e-01
7
# CELL(abcABC):   14.00143    14.00143    14.00143    90.00000    90.00000    90.00000  Step:        4800  Bead:       6 positions{angstrom}  cell{angstrom}
       O  1.20542e+00 -1.69751e+00 -8.79855e-01
       O  2.21712e+00 -1.45362e-01  6.16548e-01
       H  9.20083e-01 -1.24971e+00 -1.75360e+00
       H  1.92827e+00 -9.59196e-01 -2.70673e-01
       H  2.96513e+00  5.87361e-01  4.42141e-01
       H  2.34538e+00 -5.74162e-01  1.49048e+00
       H  6.59997e-01 -2.55009e+00 -7.44286e-01
7
# CELL(abcABC):   14.00143    14.00143    14.00143    90.00000    90.00000    90.00000  Step:        5200  Bead:       6 positions{angstrom}  cell{angstrom}
       O  1.04065e+00 -1.62128e+00 -9.07988e-01
       O  2.41040e+00 -2.58893e-01  5.89925e-01
       H  3.85973e-01 -1.56294e+00 -1.60964e+00
       H  1.64152e+00 -6.47957e-01 -2.54429e-01
       H  2.43679e+00  6.30415e-01  8.89799e-01
       H  3.32859e+00 -5.90246e-01  4.82219e-01
       H  8.68359e-01 -2.33317e+00 -1.99082e-01
7
# CELL(abcABC):   14.00143    14.00143    14.00143    90.00000    90.00000    90.00000  Step:        5600  Bead:       6 positions{angstrom}  cell{angstrom}
       O  1.03729e+00 -1.47392e+00 -8.87547e-01
       O  2.42281e+00 -3.78131e-01  6.11583e-01
       H  1.70466e-01 -1.26033e+00 -1.33455e+00
       H  1.74022e+00 -9.80938e-01 -8.30636e-02
       H  1.89958e+00  1.99338e-01  1.23749e+00
       H  3.30847e+00 -2.46476e-01  4.02921e-01
       H  1.32180e+00 -2.42290e+00 -8.04234e-01
7
# CELL(abcABC):   14.00143    14.00143    14.00143    90.00000    90.00000    90.00000  Step:        6000  Bead:       6 positions{angstrom}  cell{angstrom}
       O  1.05503e+00 -1.40792e+00 -9.47820e-01
       O  2.45470e+00 -3.98949e-01  6.06546e-01
       H  5.48919e-01 -6.69813e-01 -1.36284e+00
       H  1.73201e+00 -8.66847e-01 -5.66142e-02
       H  2.95719e+00 -7.82582e-01  1.34417e+00
       H  2.52567e+00  5.68782e-01  6.18786e-01
       H  1.27817e+00 -2.26838e+00 -1.16427e+00
7
# CELL(abcABC):   14.00143    14.00143    14.00143    90.00000    90.00000    90.00000  Step:        6400  Bead:       6 positions{angstrom}  cell{angstrom}
       O  1.31222e+00 -1.62446e+00 -9.53795e-01
       O  2.22163e+00 -1.41826e-01  6.57379e-01
       H  1.65192e+00 -1.81173e+00 -1.90652e+00
       H  1.88118e+00 -7.73946e-01 -1.49438e-01
       H  2.67249e+00 -6.75602e-01  1.33703e+00
       H  2.36282e+00  8.04654e-01  5.34620e-01
       H  6.46964e-01 -2.27315e+00 -5.78409e-01
7
# CELL(abcABC):   14.00143    14.00143    14.00143    90.00000    90.00000    90.00000  Step:        6800  Bead:       6 positions{angstrom}  cell{angstrom}
       O  1.66671e+00 -1.97258e+00 -7.67343e-01
       O  1.91293e+00  1.77287e-01  4.53195e-01
       H  2.05020e+00 -2.79009e+00 -3.80087e-01
       H  1.66220e+00 -1.01127e+00 -1.32342e-02
       H  1.89392e+00  2.47738e-01  1.32016e+00
       H  1.92586e+00  1.02454e+00  1.73319e-02
       H  9.73958e-01 -2.01886e+00 -1.53522e+00
7
# CELL(abcABC):   14.00143    14.00143    14.00143    90.00000    90.00000    90.00000  Step:        7200  Bead:       6 positions{angstrom}  cell{angstrom}
       O  1.63176e+00 -2.12827e+00 -4.73367e-01
       O  1.88001e+00  2.54004e-01  1.69131e-01
       H  1.80752e+00 -2.89144e+00  5.94292e-02
       H  1.62987e+00 -1.17116e+00 -3.26967e-01
       H  1.57694e+00  6.30471e-01  1.07145e+00
       H  2.46894e+00  1.07174e+00 -3.51663e-01
       H  8.62070e-01 -2.23173e+00 -1.06590e+00
7
# CELL(abcABC):   14.00143    14.00143    14.00143    90.00000    90.00000    90.00000  Step:        7600  Bead:       6 positions{angstrom}  cell{angstrom}
       O  1.94292e+00 -2.10862e+00 -2.69898e-01
       O  1.57328e+00  2.51779e-01 -5.60896e-02
       H  2.23946e+00 -2.59451e+00  5.41470e-01
       H  1.74346e+00 -8.73839e-01 -1.84040e-01
       H  1.11665e+00  8.12693e-01  5.69562e-01
       H  1.92824e+00  8.43589e-01 -7.72504e-01
       H  1.14507e+00 -2.42993e+00 -6.17148e-01
7
# CELL(abcABC):   14.00143    14.00143    14.00143    90.00000    90.00000    90.00000  Step:        8000  Bead:       6 positions{angstrom}  cell{angstrom}
       O  2.30709e+00 -1.95733e+00  1.02744e-01
       O  1.21998e+00  1.17616e-01 -3.44823e-01
       H  3.30633e+00 -1.84308e+00  5.23337e-01
       H  1.83913e+00 -9.07070e-01 -2.97668e-01
       H  1.20884e+00  9.47055e-01  4.11831e-02
       H  4.68270e-01  1.08701e-01 -9.27771e-01
       H  1.93087e+00 -2.84249e+00 -1.08438e-01
7
# CELL(abcABC):   14.00143    14.00143    14.00143    90.00000    90.00000    90.00000  Step:        8400  Bead:       6 positions{angstrom}  cell{angstrom}
       O  2.50788e+00 -1.81253e+00  1.62795e-01
       O  1.05276e+00 -2.35009e-02 -4.66419e-01
       H  3.24806e+00 -1.75518e+00  8.79299e-01
       H  1.81553e+00 -8.93066e-01 -1.90835e-02
       H  2.29997e-01 -1.10637e-01 -1.07856e+00
       H  1.08399e+00  5.41652e-01  1.55019e-01
       H  2.67455e+00 -2.57735e+00 -4.37889e-01
7
# CELL(abcABC):   14.00143    14.00143    14.00143    90.00000    90.00000    90.00000  Step:        8800  Bead:       6 positions{angstrom}  cell{angstrom}
       O  2.57103e+00 -1.69642e+00  4.15629e-01
       O  9.36380e-01 -2.03196e-01 -7.52372e-01
       H  2.94291e+00 -1.44174e+00  1.35554e+00
       H  1.65478e+00 -8.68082e-01  6.17731e-02
       H -6.21078e-04 -3.84629e-01 -7.81695e-01
       H  1.13739e+00  7.43924e-01 -8.13272e-01
       H  2.90423e+00 -2.42850e+00 -2.84601e-01
7
# CELL(abcABC):   14.00143    14.00143    14.00143    90.00000    90.00000    90.00000  Step:        9200  Bead:       6 positions{angstrom}  cell{angstrom}
       O  2.52485e+00 -1.42937e+00  6.61402e-01
       O  9.46789e-01 -4.38408e-01 -8.94499e-01
       H  3.09865e+00 -9.24325e-01  1.25153e+00
       H  1.78749e+00 -9.27580e-01 -1.30952e-01
       H  4.88181e-01 -1.05231e+00 -1.32367e+00
       H  7.64875e-01  3.91690e-01 -1.09803e+00
       H  3.01349e+00 -2.15367e+00  3.23706e-01
7
# CELL(abcABC):   14.00143    14.00143    14.00143    90.00000    90.00000    90.00000  Step:        9600  Bead:       6 positions{angstrom}  cell{angstrom}
       O  2.54178e+00 -1.35248e+00  5.91001e-01
       O  1.00008e+00 -4.66636e-01 -9.46378e-01
       H  3.42910e+00 -1.37990e+00  7.22590e-01
       H  1.85862e+00 -8.79694e-01 -2.60218e-01
       H  2.95707e-01 -1.05115e+00 -1.27181e+00
       H  9.04526e-01  6.38678e-01 -1.04651e+00
       H  1.84435e+00 -1.67027e+00  1.36672e+00
7
# CELL(abcABC):   14.00143    14.00143    14.00143    90.00000    90.00000    90.00000  Step:       10000  Bead:       6 positions{angstrom}  cell{angstrom}
       O  2.54343e+00 -1.59732e+00  5.20134e-01
       O  9.47186e-01 -3.31097e-01 -8.74728e-01
       H  3.50464e+00 -1.87694e+00  1.54670e-01
       H  1.68214e+00 -1.00168e+00 -4.05370e-01
       H  3.57060e-01  2.75236e-01 -1.81065e-01
       H  1.10565e+00  1.88906e-02 -1.82841e+00
       H  2.30572e+00 -1.39707e+00  1.49576e+00
7
# CELL(abcABC):   14.00143    14.00143    14.00143    90.00000    90.00000    90.00000  Step:       10400  Bead:       6 positions{angstrom}  cell{angstrom}
       O  2.29886e+00 -1.78257e+00  4.62465e-01
       O  1.16023e+00 -9.36085e-02 -7.49343e-01
       H  2.57002e+00 -2.62686e+00  3.19972e-01
       H  1.87372e+00 -8.96856e-01 -3.29826e-01
       H  1.28775e+00  8.60201e-01 -5.16754e-01
       H  8.17713e-01 -2.58486e-01 -1.69677e+00
       H  2.32429e+00 -1.48148e+00  1.36582e+00
7
# CELL(abcABC):   14.00143    14.00143    14.00143    90.00000    90.00000    90.00000  Step:       10800  Bead:       6 positions{angstrom}  cell{angstrom}
       O  2.14156e+00 -1.67298e+00  6.93420e-01
       O  1.36883e+00 -2.17740e-01 -9.34657e-01
       H  1.77292e+00 -2.57459e+00  4.81320e-01
       H  1.98066e+00 -6.76153e-01 -3.93257e-02
       H  5.02830e-01  1.83352e-01 -6.70389e-01
       H  1.86293e+00  1.95704e-01 -1.60060e+00
       H  2.80410e+00 -1.62799e+00  1.43296e+00
7
# CELL(abcABC):   14.00143    14.00143    14.00143    90.00000    90.00000    90.00000  Step:       11200  Bead:       6 positions{angstrom}  cell{angstrom}
       O  2.30116e+00 -1.58824e+00  7.56036e-01
       O  1.28281e+00 -3.01172e-01 -1.04824e+00
       H  1.45686e+00 -1.98782e+00  9.53456e-01
       H  1.89462e+00 -8.91244e-01 -1.93898e-01
       H  3.92829e-01 -5.49035e-01 -1.30798e+00
       H  1.41121e+00  5.40052e-01 -1.29207e+00
       H  2.95082e+00 -1.24168e+00  1.43880e+00
7
# CELL(abcABC):   14.00143    14.00143    14.00143    90.00000    90.00000    90.00000  Step:       11600  Bead:       6 positions{angstrom}  cell{angstrom}
       O  2.15772e+00 -1.49633e+00  8.37720e-01
       O  1.38751e+00 -3.14832e-01 -1.11462e+00
       H  1.26491e+00 -1.96059e+00  1.37887e+00
       H  1.56531e+00 -8.72388e-01 -4.43100e-02
       H  1.55338e+00 -5.22321e-01 -1.98938e+00
       H  4.34848e-01  2.99846e-02 -1.08063e+00
       H  3.07387e+00 -1.54348e+00  1.18227e+00
7
# CELL(abcABC):   14.00143    14.00143    14.00143    90.00000    90.00000    90.00000  Step:       12000  Bead:       6 positions{angstrom}  cell{angstrom}
       O  2.06451e+00 -1.41638e+00  8.42776e-01
       O  1.37737e+00 -4.78800e-01 -1.20925e+00
       H  2.00754e+00 -1.27118e+00  1.85603e+00
       H  1.64149e+00 -9.20655e-01 -1.61802e-01
       H  1.83861e+00  2.24371e-01 -1.55525e+00
       H  4.29459e-01 -3.37818e-01 -1.71208e+00
       H  2.95339e+00 -1.92748e+00  8.97245e-01
7
# CELL(abcABC):   14.00143    14.00143    14.00143    90.00000    90.00000    90.00000  Step:       12400  Bead:       6 positions{angstrom}  cell{angstrom}
       O  2.20646e+00 -1.26638e+00  9.07671e-01
       O  1.26050e+00 -6.41419e-01 -1.26003e+00
       H  1.88696e+00 -8.40518e-01  1.82802e+00
       H  1.80477e+00 -9.51391e-01 -2.69123e-01
       H  1.80005e+00  1.02025e-01 -1.54003e+00
       H  6.27895e-01 -9.94566e-01 -1.80680e+00
       H  3.16843e+00 -1.51294e+00  8.90204e-01
7
# CELL(abcABC):   14.00143    14.00143    14.00143    90.00000    90.00000    90.00000  Step:       12800  Bead:       6 positions{angstrom}  cell{angstrom}
       O  2.28732e+00 -1.26876e+00  8.46927e-01
       O  1.23299e+00 -6.38052e-01 -1.21851e+00
       H  1.90081e+00 -7.39706e-01  1.47065e+00
       H  1.69649e+00 -8.28640e-01 -2.37392e-01
       H  1.41466e+00  1.94420e-01 -1.66676e+00
       H  3.32704e-01 -1.11744e+00 -1.46174e+00
       H  3.15690e+00 -1.57453e+00  1.00415e+00
7
# CELL(abcABC):   14.00143    14.00143    14.00143    90.00000    90.00000    90.00000  Step:       13200  Bead:       6 positions{angstrom}  cell{angstrom}
       O  2.31256e+00 -1.42539e+00  8.17935e-01
       O  1.32213e+00 -3.94142e-01 -1.16483e+00
       H  1.72757e+00 -1.49473e+00  1.54190e+00
       H  1.88006e+00 -7.41871e-01 -7.84476e-02
       H  1.21300e+00  5.10768e-01 -1.34013e+00
       H  6.84555e-01 -9.81540e-01 -1.74995e+00
       H  3.13309e+00 -2.00527e+00  9.34447e-01
7
# CELL(abcABC):   14.00143    14.00143    14.00143    90.00000    90.00000    90.00000  Step:       13600  Bead:       6 positions{angstrom}  cell{angstrom}
       O  2.29694e+00 -1.41403e+00  8.04094e-01
       O  1.27076e+00 -3.27880e-01 -1.14623e+00
       H  2.22004e+00 -1.45272e+00  1.83647e+00
       H  1.49918e+00 -8.00804e-01 -2.38584e-01
       H  3.35060e-01 -2.34355e-02 -1.24313e+00
       H  1.50428e+00 -7.57314e-01 -2.07476e+00
       H  2.86915e+00 -2.25638e+00  4.65098e-01
7
# CELL(abcABC):   14.00143    14.00143    14.00143    90.00000    90.00000    90.00000  Step:       14000  Bead:       6 positions{angstrom}  cell{angstrom}
       O  2.35080e+00 -1.43511e+00  7.37220e-01
       O  1.14653e+00 -2.94210e-01 -9.81598e-01
       H  1.86662e+00 -2.25980e+00  7.72745e-01
       H  1.65190e+00 -6.85874e-01  5.22329e-02
       H  1.97659e-01 -4.21028e-01 -1.19119e+00
       H  1.60526e+00 -4.71017e-01 -1.82700e+00
       H  3.20920e+00 -1.57447e+00  8.89237e-01
7
# CELL(abcABC):   14.00143    14.00143    14.00143    90.00000    90.00000    90.00000  Step:       14400  Bead:       6 positions{angstrom}  cell{angstrom}
       O  2.31428e+00 -1.62726e+00  6.26938e-01
       O  1.15515e+00 -1.55228e-01 -8.96506e-01
       H  2.07867e+00 -2.57488e+00  6.32339e-01
       H  1.57498e+00 -7.86789e-01  7.38685e-02
       H  8.53602e-01 -8.12130e-01 -1.54563e+00
       H  1.52503e+00  8.46350e-01 -9.35889e-01
       H  3.17783e+00 -1.57927e+00  1.12822e+00
7
# CELL(abcABC):   14.00143    14.00143    14.00143    90.00000    90.00000    90.00000  Step:       14800  Bead:       6 positions{angstrom}  cell{angstrom}
       O  2.17169e+00 -1.58967e+00  8.00875e-01
       O  1.28812e+00 -2.90791e-01 -1.07246e+00
       H  1.89235e+00 -1.48020e+00  1.69766e+00
       H  1.66101e+00 -9.10320e-01 -7.66768e-02
       H  7.52825e-01 -4.05619e-01 -1.93680e+00
       H  1.61136e+00  6.75590e-01 -1.08751e+00
       H  2.45216e+00 -2.46809e+00  4.01249e-01
7
# CELL(abcABC):   14.00143    14.00143    14.00143    90.00000    90.00000    90.00000  Step:       15200  Bead:       6 positions{angstrom}  cell{angstrom}
       O  1.99570e+00 -1.69198e+00  7.74114e-01
       O  1.45398e+00 -1.01049e-01 -1.03441e+00
       H  1.58878e+00 -1.63806e+00  1.64733e+00
       H  1.84985e+00 -9.99566e-01 -2.12204e-01
       H  1.57631e+00 -2.73742e-01 -2.03818e+00
       H  1.40106e+00  8.57157e-01 -7.33788e-01
       H  2.16433e+00 -2.55222e+00  6.77280e-01
7
# CELL(abcABC):   14.00143    14.00143    14.00143    90.00000    90.00000    90.00000  Step:       15600  Bead:       6 positions{angstrom}  cell{angstrom}
       O  2.03246e+00 -1.76230e+00  5.70252e-01
       O  1.44407e+00 -2.14935e-02 -8.54423e-01
       H  2.06146e+00 -1.23549e+00  1.52601e+00
       H  1.71504e+00 -7.57955e-01 -7.71512e-02
       H  2.00215e+00  4.00642e-01 -1.51428e+00
       H  5.07012e-01  1.73158e-01 -6.67167e-01
       H  2.12572e+00 -2.72662e+00  4.59457e-01
7
# CELL(abcABC):   14.00143    14.00143    14.00143    90.00000    90.00000    90.00000  Step:       16000  Bead:       6 positions{angstrom}  cell{angstrom}
       O  2.31140e+00 -1.74673e+00  4.85668e-01
       O  1.17701e+00 -8.38354e-02 -8.14374e-01
       H  2.75766e+00 -1.64016e+00  1.38781e+00
       H  1.83762e+00 -7.49970e-01 -3.62912e-02
       H  1.59839e+00  7.56838e-01 -8.01969e-01
       H  5.69793e-01 -4.33120e-01 -1.39417e+00
       H  2.44171e+00 -2.71160e+00  2.76986e-01
7
# CELL(abcABC):   14.00143    14.00143    14.00143    90.00000    90.00000    90.00000  Step:       16400  Bead:       6 positions{angstrom}  cell{angstrom}
       O  2.05693e+00 -1.80051e+00  7.06171e-01
       O  1.45484e+00 -9.57852e-02 -1.03670e+00
       H  2.73375e+00 -1.76496e+00  1.41350e+00
       H  1.90009e+00 -8.46673e-01 -5.11249e-02
       H  1.52734e+00  8.92782e-01 -9.45054e-01
       H  8.92755e-01 -4.29941e-01 -1.79977e+00
       H  1.40417e+00 -2.67218e+00  6.45221e-01
7
# CELL(abcABC):   14.00143    14.00143    14.00143    90.00000    90.00000    90.00000  Step:       16800  Bead:       6 positions{angstrom}  cell{angstrom}
       O  1.79020e+00 -1.69734e+00  8.34088e-01
       O  1.60443e+00 -1.80820e-01 -1.13280e+00
       H  2.69721e+00 -1.64559e+00  1.12613e+00
       H  1.67003e+00 -8.25486e-01  2.82520e-02
       H  1.95067e+00  7.32961e-01 -9.15976e-01
       H  1.47227e+00 -2.50484e-01 -2.02535e+00
       H  1.42354e+00 -2.57742e+00  6.33975e-01
7
# CELL(abcABC):   14.00143    14.00143    14.00143    90.00000    90.00000    90.00000  Step:       17200  Bead:       6 positions{angstrom}  cell{angstrom}
       O  1.98235e+00 -1.65406e+00  8.05305e-01
       O  1.45629e+00 -1.71372e-01 -1.13454e+00
       H  1.63152e+00 -1.27499e+00  1.63096e+00
       H  1.61492e+00 -9.53736e-01 -2.14308e-01
       H  1.84088e+00  7.27076e-01 -9.63578e-01
       H  1.52118e+00 -6.13431e-01 -2.05311e+00
       H  2.73119e+00 -2.11040e+00  7.46690e-01
7
# CELL(abcABC):   14.00143    14.00143    14.00143    90.00000    90.00000    90.00000  Step:       17600  Bead:       6 positions{angstrom}  cell{angstrom}
       O  2.05813e+00 -1.56665e+00  8.12781e-01
       O  1.39205e+00 -2.75440e-01 -1.10443e+00
       H  2.11832e+00 -1.11564e+00  1.81093e+00
       H  1.65506e+00 -8.88179e-01 -2.60083e-01
       H  1.34691e+00  6.76395e-01 -1.35620e+00
       H  1.68845e+00 -8.68160e-01 -1.82878e+00
       H  2.92582e+00 -2.16503e+00  6.82484e-01
7
# CELL(abcABC):   14.00143    14.00143    14.00143    90.00000    90.00000    90.00000  Step:       18000  Bead:       6 positions{angstrom}  cell{angstrom}
       O  2.43744e+00 -1.51405e+00  6.64103e-01
       O  1.01354e+00 -3.26366e-01 -9.90693e-01
       H  2.38151e+00 -1.44985e+00  1.67600e+00
       H  1.65810e+00 -9.86166e-01 -2.66342e-01
       H  7.68917e-03 -1.69306e-02 -9.29394e-01
       H  1.57544e+00 -2.79232e-02 -1.77032e+00
       H  3.32783e+00 -1.97322e+00  4.05122e-01
7
# CELL(abcABC):   14.00143    14.00143    14.00143    90.00000    90.00000    90.00000  Step:       18400  Bead:       6 positions{angstrom}  cell{angstrom}
       O  2.49652e+00 -1.35977e+00  7.30004e-01
       O  9.36639e-01 -4.97144e-01 -1.03663e+00
       H  2.72202e+00 -1.91703e+00  1.52219e+00
       H  1.66725e+00 -8.97315e-01 -4.00935e-01
       H  6.16434e-01  4.08690e-01 -8.69829e-01
       H  9.47763e-01 -7.30222e-01 -1.96569e+00
       H  3.25467e+00 -7.26643e-01  6.25386e-01
7
# CELL(abcABC):   14.00143    14.00143    14.00143    90.00000    90.00000    90.00000  Step:       18800  Bead:       6 positions{angstrom}  cell{angstrom}
       O  2.56911e+00 -1.25163e+00  6.45567e-01
       O  8.97615e-01 -5.68789e-01 -9.42746e-01
       H  3.02669e+00 -2.08602e+00  7.78540e-01
       H  1.81429e+00 -9.90174e-01 -2.16993e-01
       H  4.20595e-01  2.04757e-01 -8.95849e-01
       H  6.87885e-01 -1.04231e+00 -1.80470e+00
       H  2.79057e+00 -4.38764e-01  1.16834e+00
7
# CELL(abcABC):   14.00143    14.00143    14.00143    90.00000    90.00000    90.00000  Step:       19200  Bead:       6 positions{angstrom}  cell{angstrom}
       O  2.39388e+00 -1.47123e+00  6.57080e-01
       O  1.10365e+00 -3.71114e-01 -9.88341e-01
       H  3.37596e+00 -1.33551e+00  5.03779e-01
       H  1.55769e+00 -9.15949e-01 -8.82602e-02
       H  4.91752e-01  3.90148e-01 -1.07244e+00
       H  1.39505e+00 -9.53568e-01 -1.75639e+00
       H  2.30080e+00 -1.73020e+00  1.68967e+00
7
# CELL(abcABC):   14.00143    14.00143    14.00143    90.00000    90.00000    90.00000  Step:       19600  Bead:       6 positions{angstrom}  cell{angstrom}
       O  2.09057e+00 -1.66966e+00  7.09017e-01
       O  1.38875e+00 -1.94078e-01 -1.03759e+00
       H  2.36637e+00 -1.35395e+00  1.64633e+00
       H  1.80213e+00 -7.89015e-01 -3.48329e-01
       H  4.85344e-01 -6.07262e-02 -1.07917e+00
       H  2.08814e+00  2.56383e-01 -1.47992e+00
       H  2.33875e+00 -2.51294e+00  4.87122e-01
7
# CELL(abcABC):   14.00143    14.00143    14.00143    90.00000    90.00000    90.00000  Step:       20000  Bead:       6 positions{angstrom}  cell{angstrom}
       O  2.04057e+00 -1.88252e+00  5.13610e-01
       O  1.51300e+00 -6.60923e-03 -8.71379e-01
       H  2.34898e+00 -1.64668e+00  1.45432e+00
       H  1.78961e+00 -9.70699e-01 -5.18948e-02
       H  9.02857e-01 -4.46791e-01 -1.61409e+00
       H  8.81517e-01  6.16556e-01 -4.55523e-01
       H  2.35116e+00 -2.49457e+00 -1.63796e-02
7
# CELL(abcABC):   14.00143    14.00143    14.00143    90.00000    90.00000    90.00000  Step:       20400  Bead:       6 positions{angstrom}  cell{angstrom}
       O  2.07588e+00 -1.97994e+00  3.81396e-01
       O  1.44310e+00  1.27124e-01 -7.21840e-01
       H  2.85079e+00 -2.18034e+00  9.35759e-01
       H  1.79981e+00 -7.69882e-01 -1.48427e-01
       H  2.03650e+00  3.97987e-01 -1.42307e+00
       H  5.00008e-01  3.58980e-01 -8.97146e-01
       H  1.20821e+00 -2.44659e+00  8.48632e-01
7
# CELL(abcABC):   14.00143    14.00143    14.00143    90.00000    90.00000    90.00000  Step:       20800  Bead:       6 positions{angstrom}  cell{angstrom}
       O  2.21254e+00 -1.96514e+00  2.82271e-01
       O  1.35513e+00  1.04613e-01 -6.19431e-01
       H  3.12808e+00 -2.01715e+00  1.74846e-01
       H  1.71422e+00 -9.58537e-01 -1.83658e-01
       H  1.77839e+00  9.11867e-01 -8.12382e-01
       H  4.77898e-01 -4.18196e-02 -1.09275e+00
       H  1.69602e+00 -2.50451e+00  9.11918e-01
7
# CELL(abcABC):   14.00143    14.00143    14.00143    90.00000    90.00000    90.00000  Step:       21200  Bead:       6 positions{angstrom}  cell{angstrom}
       O  2.13651e+00 -1.94781e+00  3.29373e-01
       O  1.37658e+00  1.03059e-01 -5.86182e-01
       H  3.02891e+00 -2.09124e+00  6.59052e-01
       H  1.82321e+00 -8.31968e-01 -2.52224e-01
       H  1.22769e+00  9.30407e-01  1.50105e-01
       H  1.07942e+00  2.66949e-01 -1.45309e+00
       H  1.58142e+00 -2.80487e+00  1.96352e-01
7
# CELL(abcABC):   14.00143    14.00143    14.00143    90.00000    90.00000    90.00000  Step:       21600  Bead:       6 positions{angstrom}  cell{angstrom}
       O  2.09439e+00 -1.92763e+00  3.80193e-01
       O  1.38609e+00  7.42717e-02 -6.59215e-01
       H  1.71992e+00 -2.23009e+00  1.22796e+00
       H  1.75222e+00 -8.79194e-01 -1.45289e-01
       H  7.12558e-01  4.67019e-01 -5.44135e-02
       H  1.19351e+00  2.15110e-01 -1.61757e+00
       H  2.48097e+00 -2.73607e+00 -2.72925e-01
7
# CELL(abcABC):   14.00143    14.00143    14.00143    90.00000    90.00000    90.00000  Step:       22000  Bead:       6 positions{angstrom}  cell{angstrom}
       O  1.97719e+00 -1.88632e+00  4.82489e-01
       O  1.45781e+00  3.14492e-02 -8.28090e-01
       H  1.44916e+00 -2.50238e+00  8.79314e-01
       H  1.52281e+00 -9.58315e-01  5.95688e-02
       H  8.64872e-01  7.79382e-01 -6.49207e-01
       H  2.07747e+00  5.50899e-01 -1.29863e+00
       H  2.81606e+00 -2.23430e+00  1.68963e-01
7
# CELL(abcABC):   14.00143    14.00143    14.00143    90.00000    90.00000    90.00000  Step:       22400  Bead:       6 positions{angstrom}  cell{angstrom}
       O  1.84862e+00 -2.06581e+00  2.71913e-01
       O  1.66511e+00  2.50228e-01 -6.12490e-01
       H  1.46238e+00 -2.89308e+00 -1.11189e-01
       H  1.84206e+00 -1.02036e+00  1.10124e-01
       H  9.23150e-01  9.58231e-01 -4.58655e-01
       H  2.47506e+00  4.23199e-01 -1.19058e+00
       H  2.17167e+00 -2.22488e+00  1.17225e+00
7
# CELL(abcABC):   14.00143    14.00143    14.00143    90.00000    90.00000    90.00000  Step:       22800  Bead:       6 positions{angstrom}  cell{angstrom}
       O  1.96787e+00 -2.03502e+00 -1.81673e-02
       O  1.49755e+00  2.74242e-01 -2.17566e-01
       H  2.12628e+00 -2.56339e+00 -8.06193e-01
       H  1.62085e+00 -8.91938e-01 -6.90334e-02
       H  2.01796e+00  4.81082e-01  5.54219e-01
       H  1.31826e+00  8.38715e-01 -9.80157e-01
       H  1.70450e+00 -2.64273e+00  6.26594e-01
7
# CELL(abcABC):   14.00143    14.00143    14.00143    90.00000    90.00000    90.00000  Step:       23200  Bead:       6 positions{angstrom}  cell{angstrom}
       O  2.18226e+00 -2.03456e+00 -5.95244e-02
       O  1.29390e+00  2.68526e-01 -1.95195e-01
       H  3.15284e+00 -2.24640e+00 -9.80271e-02
       H  1.87481e+00 -9.92249e-01 -3.75918e-02
       H  1.55405e+00  9.88553e-01  4.08488e-01
       H  9.04292e-01  4.39674e-01 -1.05432e+00
       H  1.47652e+00 -2.78740e+00 -7.32808e-03
7
# CELL(abcABC):   14.00143    14.00143    14.00143    90.00000    90.00000    90.00000  Step:       23600  Bead:       6 positions{angstrom}  cell{angstrom}
       O  2.31172e+00 -1.96037e+00  1.85964e-01
       O  1.18442e+00  1.61673e-01 -4.97294e-01
       H  2.99403e+00 -2.39100e+00 -3.26065e-01
       H  1.55263e+00 -8.04049e-01 -3.29658e-02
       H  4.87390e-01  5.28120e-01 -1.64644e-02
       H  1.35111e+00  6.00453e-01 -1.41627e+00
       H  2.26955e+00 -2.50625e+00  1.08194e+00
7
# CELL(abcABC):   14.00143    14.00143    14.00143    90.00000    90.00000    90.00000  Step:       24000  Bead:       6 positions{angstrom}  cell{angstrom}
       O  2.35566e+00 -1.75537e+00  4.03608e-01
       O  1.16966e+00 -3.68839e-02 -6.57850e-01