7
# CELL(abcABC):   14.00143    14.00143    14.00143    90.00000    90.00000    90.00000  Step:           0  Bead:       2 positions{angstrom}  cell{angstrom}
       O  5.72211e-01 -8.20992e-01 -3.40858e-01
       O  2.93099e+00 -1.00086e+00  3.45000e-02
       H  1.15544e-01 -1.32891e+00 -1.03000e+00
       H  1.75146e+00 -9.10942e-01 -1.52650e-01
       H  3.30479e+00 -1.55124e+00  7.40818e-01
       H  3.58125e+00 -5.33487e-01 -5.13365e-01
       H  5.91684e-03 -2.31237e-01  1.81684e-01
7
# CELL(abcABC):   14.00143    14.00143    14.00143    90.00000    90.00000    90.00000  Step:         400  Bead:       2 positions{angstrom}  cell{angstrom}
       O  5.48622e-01 -8.89604e-01 -8.67812e-02
       O  2.93435e+00 -8.59836e-01 -2.03769e-01
       H  1.09666e-01 -1.31143e+00 -6.87929e-01
       H  1.75031e+00 -7.67231e-01 -6.28684e-03
       H  3.60303e+00 -8.42919e-01  5.50922e-01
       H  3.38067e+00 -1.34493e+00 -9.05497e-01
       H -1.60580e-01 -1.95577e-01  2.44985e-01
7
# CELL(abcABC):   14.00143    14.00143    14.00143    90.00000    90.00000    90.00000  Step:         800  Bead:       2 positions{angstrom}  cell{angstrom}
       O  5.96410e-01 -1.15646e+00  1.49035e-01
       O  2.89885e+00 -6.64918e-01 -4.01716e-01
       H -1.17201e-01 -1.34199e+00 -5.47408e-01
       H  1.74046e+00 -1.07026e+00 -2.63633e-02
       H  3.38038e+00  2.06241e-01 -5.04475e-01
       H  3.62006e+00 -1.37250e+00 -4.35063e-01
       H  2.92095e-01 -1.48522e+00  1.03678e+00
7
# CELL(abcABC):   14.00143    14.00143    14.00143    90.00000    90.00000    90.00000  Step:        1200  Bead:       2 positions{angstrom}  cell{angstrom}
       O  5.68510e-01 -1.24558e+00  6.14495e-02
       O  2.92797e+00 -5.40684e-01 -2.84788e-01
       H  2.14569e-01 -1.62135e+00 -7.25346e-01
       H  1.94285e+00 -9.53667e-01 -1.84041e-01
       H  3.30117e+00  3.35143e-01 -7.07537e-01
       H  3.39758e+00 -1.38512e+00 -3.45039e-01
       H -8.79291e-02 -9.66644e-01  8.26161e-01
7
# CELL(abcABC):   14.00143    14.00143    14.00143    90.00000    90.00000    90.00000  Step:        1600  Bead:       2 positions{angstrom}  cell{angstrom}
       O  6.35572e-01 -1.45796e+00 -2.00667e-01
       O  2.88645e+00 -3.87774e-01 -5.58180e-02
       H  1.84833e-01 -1.61716e+00 -1.07774e+00
       H  1.84555e+00 -8.70689e-01  6.64217e-02
       H  2.79817e+00  5.99454e-01 -4.10791e-01
       H  3.68619e+00 -8.72262e-01 -5.98309e-01
       H -1.10107e-01 -1.35597e+00  4.78752e-01
7
# CELL(abcABC):   14.00143    14.00143    14.00143    90.00000    90.00000    90.00000  Step:        2000  Bead:       2 positions{angstrom}  cell{angstrom}
       O  7.10531e-01 -1.41451e+00 -6.39544e-01
       O  2.79453e+00 -3.86857e-01  2.91047e-01
       H  6.51828e-01 -2.03769e+00 -1.31674e+00
       H  1.60236e+00 -1.19515e+00 -2.59116e-01
       H  2.82404e+00  2.00081e-02  1.22377e+00
       H  3.57230e+00 -1.97985e-01 -2.01257e-01
       H  8.27444e-02 -1.63706e+00  7.34795e-02
7
# CELL(abcABC):   14.00143    14.00143    14.00143    90.00000    90.00000    90.00000  Step:        2400  Bead:       2 positions{angstrom}  cell{angstrom}
       O  8.17184e-01 -1.07481e+00 -8.44805e-01
       O  2.67916e+00 -6.22569e-01  4.86407e-01
       H  8.65670e-01 -1.91677e+00 -1.33214e+00
       H  1.70978e+00 -7.77048e-01 -3.49587e-01
       H  2.50105e+00 -5.68124e-01  1.56995e+00
       H  3.36995e+00 -1.30161e+00  3.53363e-01
       H -1.68506e-01 -7.54626e-01 -6.30650e-01
7
# CELL(abcABC):   14.00143    14.00143    14.00143    90.00000    90.00000    90.00000  Step:        2800  Bead:       2 positions{angstrom}  cell{angstrom}
       O  8.06986e-01 -8.35715e-01 -8.86822e-01
       O  2.62842e+00 -9.57877e-01  5.53669e-01
       H  5.04366e-01 -1.23458e+00 -1.77662e+00
       H  1.86085e+00 -6.91713e-01 -5.13980e-01
       H  3.48794e+00 -4.80015e-01  7.14806e-01
       H  2.23835e+00 -9.99916e-01  1.47065e+00
       H  1.05655e-01 -7.67358e-01 -2.37023e-01
7
# CELL(abcABC):   14.00143    14.00143    14.00143    90.00000    90.00000    90.00000  Step:        3200  Bead:       2 positions{angstrom}  cell{angstrom}
       O  9.11708e-01 -8.86096e-01 -1.06026e+00
       O  2.61143e+00 -8.63548e-01  7.32057e-01
       H  9.63294e-01 -5.71319e-01 -1.90510e+00
       H  1.83054e+00 -1.08535e+00 -1.02079e-01
       H  2.45769e+00 -1.45718e+00  1.53107e+00
       H  2.92849e+00  3.41547e-02  6.86513e-01
       H -1.30963e-01 -9.80108e-01 -8.77880e-01
7
# CELL(abcABC):   14.00143    14.00143    14.00143    90.00000    90.00000    90.00000  Step:        3600  Bead:       2 positions{angstrom}  cell{angstrom}
       O  7.20419e-01 -1.16701e+00 -9.54853e-01
       O  2.71857e+00 -6.96344e-01  6.90075e-01
       H  5.42364e-01 -4.73025e-01 -1.58236e+00
       H  1.97675e+00 -1.02278e+00 -7.79632e-02
       H  3.33794e+00 -1.26904e+00  1.28755e+00
       H  3.25277e+00 -4.47677e-03  3.11810e-01
       H  2.09141e-01 -1.92417e+00 -8.46324e-01
7
# CELL(abcABC):   14.00143    14.00143    14.00143    90.00000    90.00000    90.00000  Step:        4000  Bead:       2 positions{angstrom}  cell{angstrom}
       O  9.27657e-01 -1.65600e+00 -8.70319e-01
       O  2.51424e+00 -2.82095e-01  5.72590e-01
       H  6.91956e-01 -8.96727e-01 -1.40910e+00
       H  1.77433e+00 -1.03378e+00 -1.68761e-01
       H  2.42898e+00 -3.59352e-01  1.63665e+00
       H  3.00705e+00  5.78393e-01  1.33685e-01
       H  7.54322e-01 -2.51998e+00 -1.23985e+00
7
# CELL(abcABC):   14.00143    14.00143    14.00143    90.00000    90.00000    90.00000  Step:        4400  Bead:       2 positions{angstrom}  cell{angstrom}
       O  1.30875e+00 -1.82692e+00 -8.47197e-01
       O  2.16231e+00 -2.88932e-03  5.38341e-01
       H  9.13932e-01 -1.51779e+00 -1.71076e+00
       H  1.65644e+00 -8.41612e-01 -4.48817e-01
       H  2.80849e+00 -3.96015e-01  1.25795e+00
       H  2.00487e+00  9.01777e-01  1.99618e-01
       H  7.76038e-01 -2.54102e+00 -3.74414e-01
7
# CELL(abcABC):   14.00143    14.00143    14.00143    90.00000    90.00000    90.00000  Step:        4800  Bead:       2 positions{angstrom}  cell{angstrom}
       O  1.23907e+00 -1.71052e+00 -9.39500e-01
       O  2.31039e+00 -6.28385e-02  6.52806e-01
       H  1.08401e+00 -1.39437e+00 -1.94962e+00
       H  1.67995e+00 -9.10742e-01 -2.43195e-01
       H  3.09234e+00  4.63128e-01  3.50671e-01
       H  2.38112e+00 -6.28121e-01  1.37984e+00
       H  6.04867e-01 -2.32301e+00 -5.48718e-01
7
# CELL(abcABC):   14.00143    14.00143    14.00143    90.00000    90.00000    90.00000  Step:        5200  Bead:       2 positions{angstrom}  cell{angstrom}
       O  1.08961e+00 -1.55851e+00 -8.76534e-01
       O  2.48510e+00 -2.66971e-01  5.86743e-01
       H  5.83036e-01 -1.23363e+00 -1.61793e+00
       H  1.55697e+00 -7.56281e-01 -1.67100e-01
       H  2.60314e+00  6.61449e-01  8.61600e-01
       H  3.25669e+00 -9.43202e-01  4.14779e-01
       H  4.47656e-01 -2.01897e+00 -3.30441e-01
7
# CELL(abcABC):   14.00143    14.00143    14.00143    90.00000    90.00000    90.00000  Step:        5600  Bead:       2 positions{angstrom}  cell{angstrom}
       O  1.07342e+00 -1.45275e+00 -8.84200e-01
       O  2.47357e+00 -3.68006e-01  5.69189e-01
       H  1.96607e-01 -1.10544e+00 -1.27447e+00
       H  1.71853e+00 -1.02585e+00 -1.52850e-01
       H  2.24686e+00  3.24221e-01  1.20754e+00
       H  3.29725e+00 -2.39325e-01  3.28294e-01
       H  1.14029e+00 -2.45397e+00 -1.12544e+00
7
# CELL(abcABC):   14.00143    14.00143    14.00143    90.00000    90.00000    90.00000  Step:        6000  Bead:       2 positions{angstrom}  cell{angstrom}
       O  1.07274e+00 -1.48529e+00 -9.27530e-01
       O  2.37865e+00 -3.48427e-01  6.51791e-01
       H  4.30734e-01 -7.72351e-01 -1.22740e+00
       H  1.89477e+00 -1.11192e+00 -3.37353e-01
       H  2.80070e+00 -9.30827e-01  1.43328e+00
       H  2.79379e+00  6.10725e-01  7.61753e-01
       H  1.14414e+00 -2.50735e+00 -1.34339e+00
7
# CELL(abcABC):   14.00143    14.00143    14.00143    90.00000    90.00000    90.00000  Step:        6400  Bead:       2 positions{angstrom}  cell{angstrom}
       O  1.24470e+00 -1.62444e+00 -9.74006e-01
       O  2.19151e+00 -1.52149e-01  6.59198e-01
       H  1.77874e+00 -2.06260e+00 -1.65267e+00
       H  1.77979e+00 -8.68308e-01 -1.47902e-01
       H  2.63471e+00 -4.91727e-01  1.48210e+00
       H  2.33436e+00  7.90394e-01  5.58191e-01
       H  6.47249e-01 -2.25410e+00 -5.98045e-01
7
# CELL(abcABC):   14.00143    14.00143    14.00143    90.00000    90.00000    90.00000  Step:        6800  Bead:       2 positions{angstrom}  cell{angstrom}
       O  1.59713e+00 -1.98183e+00 -7.51930e-01
       O  1.90206e+00  1.96022e-01  4.45376e-01
       H  1.92084e+00 -2.72364e+00 -3.05033e-01
       H  1.66196e+00 -1.13113e+00 -2.35033e-01
       H  2.08384e+00  1.67878e-01  1.36285e+00
       H  2.16309e+00  1.00095e+00  6.30207e-03
       H  1.01166e+00 -1.97707e+00 -1.53118e+00
7
# CELL(abcABC):   14.00143    14.00143    14.00143    90.00000    90.00000    90.00000  Step:        7200  Bead:       2 positions{angstrom}  cell{angstrom}
       O  1.69758e+00 -2.05279e+00 -4.59547e-01
       O  1.89026e+00  3.09703e-01  1.43008e-01
       H  1.86177e+00 -2.78361e+00  1.06867e-01
       H  1.77092e+00 -9.17070e-01 -2.04689e-01
       H  1.70224e+00  4.75005e-01  1.13183e+00
       H  2.54341e+00  8.17293e-01 -2.40684e-01
       H  9.29820e-01 -2.19336e+00 -1.08968e+00
7
# CELL(abcABC):   14.00143    14.00143    14.00143    90.00000    90.00000    90.00000  Step:        7600  Bead:       2 positions{angstrom}  cell{angstrom}
       O  1.98566e+00 -2.10266e+00 -2.58726e-01
       O  1.53497e+00  3.06853e-01 -9.97565e-02
       H  2.41769e+00 -2.53709e+00  5.25388e-01
       H  1.92275e+00 -9.26428e-01 -2.35593e-01
       H  1.31290e+00  6.68033e-01  7.35399e-01
       H  2.12246e+00  8.54663e-01 -7.12104e-01
       H  1.31168e+00 -2.53891e+00 -6.86485e-01
7
# CELL(abcABC):   14.00143    14.00143    14.00143    90.00000    90.00000    90.00000  Step:        8000  Bead:       2 positions{angstrom}  cell{angstrom}
       O  2.35217e+00 -2.02052e+00  4.64296e-02
       O  1.16210e+00  1.55243e-01 -4.31134e-01
       H  3.26562e+00 -1.73343e+00  1.21720e-01
       H  1.73925e+00 -1.14160e+00 -1.08575e-01
       H  1.52392e+00  1.03012e+00 -1.83833e-01
       H  2.64251e-01  1.86073e-01 -1.01405e+00
       H  2.02269e+00 -2.95490e+00 -3.94588e-03
7
# CELL(abcABC):   14.00143    14.00143    14.00143    90.00000    90.00000    90.00000  Step:        8400  Bead:       2 positions{angstrom}  cell{angstrom}
       O  2.46427e+00 -1.80634e+00  1.44795e-01
       O  9.70607e-01 -4.52407e-02 -4.69298e-01
       H  3.19186e+00 -1.77670e+00  7.11985e-01
       H  1.68110e+00 -9.42590e-01 -1.67350e-01
       H  4.19832e-01 -1.20663e-01 -1.23055e+00
       H  9.10026e-01  6.10575e-01  2.94185e-01
       H  2.67710e+00 -2.48315e+00 -6.45708e-01
7
# CELL(abcABC):   14.00143    14.00143    14.00143    90.00000    90.00000    90.00000  Step:        8800  Bead:       2 positions{angstrom}  cell{angstrom}
       O  2.52431e+00 -1.59731e+00  4.33154e-01
       O  9.79453e-01 -2.45026e-01 -7.12041e-01
       H  3.16903e+00 -1.15102e+00  1.11889e+00
       H  1.62118e+00 -9.45385e-01 -2.16555e-01
       H  1.50358e-02 -6.11932e-01 -7.61268e-01
       H  1.14201e+00  6.97837e-01 -8.93433e-01
       H  2.84071e+00 -2.48797e+00 -2.43170e-02
7
# CELL(abcABC):   14.00143    14.00143    14.00143    90.00000    90.00000    90.00000  Step:        9200  Bead:       2 positions{angstrom}  cell{angstrom}
       O  2.58627e+00 -1.40894e+00  6.34209e-01
       O  9.66938e-01 -4.31486e-01 -9.32579e-01
       H  2.91878e+00 -8.92294e-01  1.43905e+00
       H  1.71485e+00 -6.23902e-01 -1.99318e-01
       H  2.75950e-01 -1.05290e+00 -1.32058e+00
       H  1.09570e+00  3.66291e-01 -1.35689e+00
       H  2.93640e+00 -2.13527e+00  5.02196e-01
7
# CELL(abcABC):   14.00143    14.00143    14.00143    90.00000    90.00000    90.00000  Step:        9600  Bead:       2 positions{angstrom}  cell{angstrom}
       O  2.57891e+00 -1.48112e+00  5.66830e-01
       O  9.84238e-01 -3.87116e-01 -8.32865e-01
       H  3.46327e+00 -1.33903e+00  8.73839e-01
       H  2.01168e+00 -9.69567e-01 -2.94792e-01
       H  1.70096e-01 -1.05061e+00 -9.71940e-01
       H  7.41835e-01  4.51664e-01 -1.09367e+00
       H  2.06069e+00 -1.95856e+00  1.24536e+00
7
# CELL(abcABC):   14.00143    14.00143    14.00143    90.00000    90.00000    90.00000  Step:       10000  Bead:       2 positions{angstrom}  cell{angstrom}
       O  2.49804e+00 -1.60458e+00  5.70978e-01
       O  1.01684e+00 -2.61214e-01 -8.16238e-01
       H  3.42052e+00 -1.95959e+00  3.10484e-01
       H  1.92060e+00 -1.05563e+00 -1.98082e-01
       H  2.55853e-01  1.22940e-01 -1.43202e-01
       H  8.14896e-01 -3.71102e-02 -1.63278e+00
       H  2.16823e+00 -1.33454e+00  1.49945e+00
7
# CELL(abcABC):   14.00143    14.00143    14.00143    90.00000    90.00000    90.00000  Step:       10400  Bead:       2 positions{angstrom}  cell{angstrom}
       O  2.25011e+00 -1.77762e+00  4.77137e-01
       O  1.26855e+00 -4.59713e-02 -7.85015e-01
       H  2.54497e+00 -2.75912e+00  5.72659e-01
       H  1.76149e+00 -1.00054e+00 -2.11449e-01
       H  1.31871e+00  8.48857e-01 -3.46774e-01
       H  1.00503e+00  1.77665e-02 -1.76963e+00
       H  2.44810e+00 -1.34123e+00  1.26203e+00
7
# CELL(abcABC):   14.00143    14.00143    14.00143    90.00000    90.00000    90.00000  Step:       10800  Bead:       2 positions{angstrom}  cell{angstrom}
       O  2.11011e+00 -1.60022e+00  6.72001e-01
       O  1.37343e+00 -2.00782e-01 -1.00174e+00
       H  1.80443e+00 -2.61621e+00  6.53681e-01
       H  1.97729e+00 -1.12157e+00 -2.94179e-01
       H  5.92102e-01  2.30275e-01 -5.85814e-01
       H  1.72115e+00  3.77292e-01 -1.83127e+00
       H  2.96775e+00 -1.71180e+00  1.12347e+00
7
# CELL(abcABC):   14.00143    14.00143    14.00143    90.00000    90.00000    90.00000  Step:       11200  Bead:       2 positions{angstrom}  cell{angstrom}
       O  2.23969e+00 -1.52496e+00  7.18466e-01
       O  1.18882e+00 -2.65930e-01 -1.04479e+00
       H  1.60119e+00 -2.13612e+00  1.16647e+00
       H  2.01747e+00 -1.15119e+00 -2.13896e-01
       H  2.62533e-01 -6.49510e-01 -1.13068e+00
       H  1.52050e+00  4.87951e-01 -1.53509e+00
       H  2.99951e+00 -1.29726e+00  1.29003e+00
7
# CELL(abcABC):   14.00143    14.00143    14.00143    90.00000    90.00000    90.00000  Step:       11600  Bead:       2 positions{angstrom}  cell{angstrom}
       O  2.15178e+00 -1.51395e+00  8.02991e-01
       O  1.39337e+00 -2.59058e-01 -1.06945e+00
       H  1.38335e+00 -2.01910e+00  1.36867e+00
       H  1.65385e+00 -8.21432e-01 -1.90768e-01
       H  1.53170e+00 -4.52254e-01 -2.03970e+00
       H  2.25772e-01 -8.44322e-02 -1.07873e+00
       H  2.95443e+00 -1.57621e+00  1.28437e+00
7
# CELL(abcABC):   14.00143    14.00143    14.00143    90.00000    90.00000    90.00000  Step:       12000  Bead:       2 positions{angstrom}  cell{angstrom}
       O  2.08354e+00 -1.35619e+00  8.98594e-01
       O  1.39185e+00 -4.52957e-01 -1.18773e+00
       H  1.84597e+00 -1.03860e+00  1.93359e+00
       H  1.94465e+00 -9.61087e-01 -8.79731e-02
       H  1.93409e+00  2.93517e-01 -1.41294e+00
       H  4.90106e-01 -5.38191e-01 -1.40907e+00
       H  2.88107e+00 -1.93594e+00  8.83906e-01
7
# CELL(abcABC):   14.00143    14.00143    14.00143    90.00000    90.00000    90.00000  Step:       12400  Bead:       2 positions{angstrom}  cell{angstrom}
       O  2.15666e+00 -1.25923e+00  9.39842e-01
       O  1.33629e+00 -6.02687e-01 -1.23616e+00
       H  1.82790e+00 -1.02350e+00  1.87505e+00
       H  1.68257e+00 -9.31539e-01 -1.33987e-01
       H  1.73749e+00  1.25947e-01 -1.70405e+00
       H  4.50850e-01 -9.03812e-01 -1.60147e+00
       H  3.12164e+00 -1.59399e+00  8.34515e-01
7
# CELL(abcABC):   14.00143    14.00143    14.00143    90.00000    90.00000    90.00000  Step:       12800  Bead:       2 positions{angstrom}  cell{angstrom}
       O  2.26299e+00 -1.27459e+00  8.86969e-01
       O  1.17674e+00 -6.23649e-01 -1.15600e+00
       H  2.01284e+00 -7.29340e-01  1.61882e+00
       H  1.92366e+00 -9.05958e-01 -2.20130e-01
       H  1.46555e+00  1.32813e-01 -1.65684e+00
       H  3.52361e-01 -9.94449e-01 -1.33115e+00
       H  3.25391e+00 -1.36397e+00  1.00387e+00
7
# CELL(abcABC):   14.00143    14.00143    14.00143    90.00000    90.00000    90.00000  Step:       13200  Bead:       2 positions{angstrom}  cell{angstrom}
       O  2.20229e+00 -1.42373e+00  8.82676e-01
       O  1.21861e+00 -3.88284e-01 -1.14617e+00
       H  1.74302e+00 -1.46631e+00  1.72702e+00
       H  1.71881e+00 -8.72239e-01 -1.77180e-01
       H  1.28033e+00  5.54244e-01 -1.15193e+00
       H  7.82863e-01 -1.01402e+00 -1.72353e+00
       H  3.07814e+00 -1.56815e+00  9.16650e-01
7
# CELL(abcABC):   14.00143    14.00143    14.00143    90.00000    90.00000    90.00000  Step:       13600  Bead:       2 positions{angstrom}  cell{angstrom}
       O  2.23362e+00 -1.45467e+00  8.61734e-01
       O  1.21939e+00 -3.77842e-01 -1.15405e+00
       H  2.02498e+00 -1.08928e+00  1.82630e+00
       H  1.69356e+00 -9.45511e-01 -1.58899e-01
       H  3.44445e-01 -1.23502e-02 -1.00086e+00
       H  1.45052e+00 -1.01919e+00 -1.87977e+00
       H  2.98603e+00 -2.14219e+00  7.35234e-01
7
# CELL(abcABC):   14.00143    14.00143    14.00143    90.00000    90.00000    90.00000  Step:       14000  Bead:       2 positions{angstrom}  cell{angstrom}
       O  2.34923e+00 -1.45689e+00  7.17898e-01
       O  1.17691e+00 -3.03265e-01 -1.02878e+00
       H  1.83220e+00 -2.22568e+00  9.41408e-01
       H  1.82206e+00 -9.24184e-01 -1.27936e-01
       H  2.77265e-01 -7.31524e-01 -8.04041e-01
       H  1.45323e+00 -5.85280e-01 -1.81294e+00
       H  3.19927e+00 -1.78517e+00  6.36006e-01
7
# CELL(abcABC):   14.00143    14.00143    14.00143    90.00000    90.00000    90.00000  Step:       14400  Bead:       2 positions{angstrom}  cell{angstrom}
       O  2.26399e+00 -1.62726e+00  6.07295e-01
       O  1.13801e+00 -1.60093e-01 -8.35588e-01
       H  2.18568e+00 -2.54414e+00  5.63714e-01
       H  1.79176e+00 -7.91240e-01 -3.92510e-02
       H  8.35037e-01 -9.91307e-01 -1.42221e+00
       H  1.51385e+00  4.93660e-01 -1.48308e+00
       H  3.15626e+00 -1.50065e+00  8.38331e-01
7
# CELL(abcABC):   14.00143    14.00143    14.00143    90.00000    90.00000    90.00000  Step:       14800  Bead:       2 positions{angstrom}  cell{angstrom}
       O  2.27443e+00 -1.59370e+00  7.58101e-01
       O  1.25320e+00 -1.84684e-01 -1.02989e+00
       H  1.99129e+00 -1.55660e+00  1.67979e+00
       H  1.47467e+00 -8.95138e-01 -1.13009e-01
       H  6.12603e-01 -4.94354e-01 -1.75252e+00
       H  1.78769e+00  6.82647e-01 -1.15447e+00
       H  2.65164e+00 -2.42843e+00  4.01018e-01
7
# CELL(abcABC):   14.00143    14.00143    14.00143    90.00000    90.00000    90.00000  Step:       15200  Bead:       2 positions{angstrom}  cell{angstrom}
       O  2.02440e+00 -1.76925e+00  7.07441e-01
       O  1.51066e+00 -6.52125e-02 -1.00856e+00
       H  1.65117e+00 -1.58865e+00  1.61849e+00
       H  1.86341e+00 -1.04877e+00 -2.62282e-01
       H  1.92176e+00  3.85244e-02 -1.93297e+00
       H  1.54535e+00  8.39950e-01 -6.34666e-01
       H  2.44551e+00 -2.59833e+00  3.32454e-01
7
# CELL(abcABC):   14.00143    14.00143    14.00143    90.00000    90.00000    90.00000  Step:       15600  Bead:       2 positions{angstrom}  cell{angstrom}
       O  2.04210e+00 -1.78290e+00  5.79968e-01
       O  1.51918e+00 -1.28770e-01 -9.26449e-01
       H  2.19037e+00 -1.54907e+00  1.50506e+00
       H  1.79276e+00 -7.34569e-01 -2.94854e-01
       H  2.18798e+00  5.03959e-01 -1.19237e+00
       H  7.35837e-01  2.53454e-01 -8.85000e-01
       H  1.87542e+00 -2.76505e+00  4.56671e-01
7
# CELL(abcABC):   14.00143    14.00143    14.00143    90.00000    90.00000    90.00000  Step:       16000  Bead:       2 positions{angstrom}  cell{angstrom}
       O  2.34204e+00 -1.69871e+00  5.72986e-01
       O  1.15153e+00 -1.36196e-01 -8.45204e-01
       H  2.78040e+00 -1.62051e+00  1.51174e+00
       H  1.71186e+00 -8.58945e-01 -1.18142e-01
       H  1.51311e+00  8.18039e-01 -9.05124e-01
       H  3.74627e-01 -3.81852e-01 -1.25091e+00
       H  2.39057e+00 -2.66346e+00  2.48746e-01
7
# CELL(abcABC):   14.00143    14.00143    14.00143    90.00000    90.00000    90.00000  Step:       16400  Bead:       2 positions{angstrom}  cell{angstrom}
       O  2.13270e+00 -1.70817e+00  6.64576e-01
       O  1.38495e+00 -6.54383e-02 -9.74156e-01
       H  2.62770e+00 -1.50718e+00  1.45207e+00
       H  1.78838e+00 -7.58554e-01 -3.84027e-01
       H  1.62718e+00  8.45940e-01 -9.24465e-01
       H  9.05009e-01 -2.88436e-01 -1.72361e+00
       H  1.50874e+00 -2.42728e+00  7.80294e-01
7
# CELL(abcABC):   14.00143    14.00143    14.00143    90.00000    90.00000    90.00000  Step:       16800  Bead:       2 positions{angstrom}  cell{angstrom}
       O  1.85013e+00 -1.66991e+00  8.12972e-01
       O  1.60594e+00 -8.44846e-02 -1.06729e+00
       H  2.82193e+00 -1.66243e+00  9.75576e-01
       H  1.73831e+00 -8.68162e-01 -1.96239e-01
       H  2.15326e+00  6.93335e-01 -8.72255e-01
       H  1.77418e+00 -1.96619e-01 -2.15467e+00
       H  1.48453e+00 -2.60989e+00  5.65399e-01
7
# CELL(abcABC):   14.00143    14.00143    14.00143    90.00000    90.00000    90.00000  Step:       17200  Bead:       2 positions{angstrom}  cell{angstrom}
       O  1.98466e+00 -1.66986e+00  7.45751e-01
       O  1.46013e+00 -1.72092e-01 -1.08544e+00
       H  1.74571e+00 -1.38877e+00  1.58588e+00
       H  1.62304e+00 -1.12753e+00 -1.83614e-01
       H  1.67286e+00  7.69894e-01 -8.41219e-01
       H  1.50451e+00 -6.27117e-01 -1.89468e+00
       H  2.89887e+00 -2.02549e+00  8.02491e-01
7
# CELL(abcABC):   14.00143    14.00143    14.00143    90.00000    90.00000    90.00000  Step:       17600  Bead:       2 positions{angstrom}  cell{angstrom}
       O  2.09462e+00 -1.59458e+00  8.15381e-01
       O  1.32117e+00 -2.80920e-01 -1.09753e+00
       H  2.02369e+00 -1.02601e+00  1.56624e+00
       H  1.76754e+00 -1.03744e+00 -1.02200e-01
       H  1.05891e+00  6.06820e-01 -1.30119e+00
       H  1.75143e+00 -6.86998e-01 -1.85869e+00
       H  3.02103e+00 -2.07220e+00  8.86959e-01
7
# CELL(abcABC):   14.00143    14.00143    14.00143    90.00000    90.00000    90.00000  Step:       18000  Bead:       2 positions{angstrom}  cell{angstrom}
       O  2.48631e+00 -1.49259e+00  6.50409e-01
       O  1.00682e+00 -2.88535e-01 -9.79209e-01
       H  2.27922e+00 -1.42500e+00  1.63006e+00
       H  1.83521e+00 -8.96817e-01 -6.46644e-02
       H  1.06614e-01 -1.60772e-03 -6.02880e-01
       H  1.36317e+00  2.71354e-01 -1.62359e+00
       H  3.33452e+00 -1.79715e+00  3.90221e-01
7
# CELL(abcABC):   14.00143    14.00143    14.00143    90.00000    90.00000    90.00000  Step:       18400  Bead:       2 positions{angstrom}  cell{angstrom}
       O  2.47841e+00 -1.34858e+00  7.29902e-01
       O  9.65457e-01 -5.34151e-01 -9.99143e-01
       H  2.66524e+00 -2.05758e+00  1.34992e+00
       H  1.76256e+00 -1.16621e+00 -2.81848e-02
       H  7.13274e-01  3.01844e-01 -6.31471e-01
       H  9.88388e-01 -5.12060e-01 -1.91975e+00
       H  3.23013e+00 -8.25364e-01  5.99975e-01
7
# CELL(abcABC):   14.00143    14.00143    14.00143    90.00000    90.00000    90.00000  Step:       18800  Bead:       2 positions{angstrom}  cell{angstrom}
       O  2.54422e+00 -1.21043e+00  6.68567e-01
       O  9.32464e-01 -6.66138e-01 -9.41819e-01
       H  2.96422e+00 -2.20644e+00  7.94893e-01
       H  1.86786e+00 -1.18485e+00 -2.95149e-01
       H  3.30967e-01  2.11119e-01 -6.85718e-01
       H  8.50514e-01 -8.23856e-01 -1.86162e+00
       H  2.95131e+00 -4.95293e-01  1.21474e+00
7
# CELL(abcABC):   14.00143    14.00143    14.00143    90.00000    90.00000    90.00000  Step:       19200  Bead:       2 positions{angstrom}  cell{angstrom}
       O  2.38387e+00 -1.46985e+00  6.92417e-01
       O  1.08683e+00 -3.90681e-01 -1.00166e+00
       H  3.40730e+00 -1.50600e+00  6.60473e-01
       H  1.59798e+00 -7.86877e-01 -1.42292e-01
       H  5.99982e-01  5.63814e-01 -1.10770e+00
       H  1.13645e+00 -1.01427e+00 -1.80152e+00
       H  2.16299e+00 -1.76611e+00  1.67380e+00
7
# CELL(abcABC):   14.00143    14.00143    14.00143    90.00000    90.00000    90.00000  Step:       19600  Bead:       2 positions{angstrom}  cell{angstrom}
       O  2.10062e+00 -1.66047e+00  7.84181e-01
       O  1.41649e+00 -2.24899e-01 -1.04459e+00
       H  2.18288e+00 -1.50254e+00  1.78160e+00
       H  1.96143e+00 -9.20094e-01 -1.57798e-01
       H  7.48262e-01  1.75374e-01 -1.52324e+00
       H  2.06869e+00  1.86111e-01 -1.65436e+00
       H  2.12325e+00 -2.60652e+00  3.21450e-01
7
# CELL(abcABC):   14.00143    14.00143    14.00143    90.00000    90.00000    90.00000  Step:       20000  Bead:       2 positions{angstrom}  cell{angstrom}
       O  2.03377e+00 -1.79650e+00  5.87950e-01
       O  1.48280e+00 -7.19324e-03 -9.14251e-01
       H  2.34972e+00 -1.91264e+00  1.61721e+00
       H  1.74043e+00 -7.37146e-01 -1.86026e-01
       H  1.22572e+00 -4.11393e-01 -1.71223e+00
       H  8.04160e-01  7.02691e-01 -6.94370e-01
       H  2.54384e+00 -2.51344e+00  6.29570e-02
7
# CELL(abcABC):   14.00143    14.00143    14.00143    90.00000    90.00000    90.00000  Step:       20400  Bead:       2 positions{angstrom}  cell{angstrom}
       O  2.12888e+00 -1.95005e+00  3.91015e-01
       O  1.42425e+00  9.05269e-02 -6.98886e-01
       H  2.93369e+00 -1.71776e+00  1.04056e+00
       H  1.64046e+00 -9.82389e-01 -8.28759e-02
       H  2.25038e+00  2.93637e-01 -1.22381e+00
       H  7.16124e-01  4.97679e-01 -1.08433e+00
       H  1.41209e+00 -2.35623e+00  8.83465e-01
7
# CELL(abcABC):   14.00143    14.00143    14.00143    90.00000    90.00000    90.00000  Step:       20800  Bead:       2 positions{angstrom}  cell{angstrom}
       O  2.21085e+00 -1.95567e+00  3.32064e-01
       O  1.29845e+00  6.35626e-02 -6.07892e-01
       H  3.14566e+00 -2.05078e+00  2.76716e-01
       H  1.70025e+00 -7.95167e-01 -1.29916e-01
       H  1.87102e+00  9.35449e-01 -8.34339e-01
       H  4.43615e-01 -2.57203e-02 -1.16595e+00
       H  1.67533e+00 -2.44712e+00  9.85383e-01
7
# CELL(abcABC):   14.00143    14.00143    14.00143    90.00000    90.00000    90.00000  Step:       21200  Bead:       2 positions{angstrom}  cell{angstrom}
       O  2.19137e+00 -1.96130e+00  2.57350e-01
       O  1.34104e+00  8.05759e-02 -6.71674e-01
       H  3.09410e+00 -2.12795e+00  7.42101e-01
       H  1.76768e+00 -1.01754e+00 -1.50095e-01
       H  1.45188e+00  8.86750e-01 -5.42929e-02
       H  9.48302e-01  1.78088e-01 -1.50074e+00
       H  1.56279e+00 -2.74624e+00  3.72371e-01
7
# CELL(abcABC):   14.00143    14.00143    14.00143    90.00000    90.00000    90.00000  Step:       21600  Bead:       2 positions{angstrom}  cell{angstrom}
       O  2.17771e+00 -1.82840e+00  3.71967e-01
       O  1.40698e+00  8.53894e-02 -6.58306e-01
       H  1.95330e+00 -1.87803e+00  1.29955e+00
       H  2.13492e+00 -1.10896e+00 -3.23392e-01
       H  1.00280e+00  8.67252e-01 -1.12838e-01
       H  1.26924e+00  1.92755e-01 -1.79951e+00
       H  2.21345e+00 -2.66274e+00 -1.25690e-01
7
# CELL(abcABC):   14.00143    14.00143    14.00143    90.00000    90.00000    90.00000  Step:       22000  Bead:       2 positions{angstrom}  cell{angstrom}
       O  2.02054e+00 -1.88983e+00  5.18052e-01
       O  1.50900e+00  8.78794e-02 -7.95944e-01
       H  1.33906e+00 -2.46858e+00  8.29183e-01
       H  1.78801e+00 -8.81693e-01 -1.77543e-01
       H  8.97356e-01  7.56718e-01 -4.71780e-01
       H  2.24903e+00  4.93150e-01 -1.04955e+00
       H  2.65119e+00 -2.53384e+00  1.81654e-01
7
# CELL(abcABC):   14.00143    14.00143    14.00143    90.00000    90.00000    90.00000  Step:       22400  Bead:       2 positions{angstrom}  cell{angstrom}
       O  1.84285e+00 -2.06157e+00  2.63531e-01
       O  1.65230e+00  2.43920e-01 -5.56384e-01
       H  1.41486e+00 -2.73399e+00 -1.28367e-01
       H  1.59020e+00 -8.88033e-01 -1.22203e-01
       H  1.12737e+00  1.00445e+00 -4.16986e-01
       H  2.40311e+00  7.83228e-01 -8.44195e-01
       H  2.09140e+00 -2.21757e+00  1.25834e+00
7
# CELL(abcABC):   14.00143    14.00143    14.00143    90.00000    90.00000    90.00000  Step:       22800  Bead:       2 positions{angstrom}  cell{angstrom}
       O  1.97473e+00 -2.05200e+00 -5.17578e-02
       O  1.48379e+00  2.51850e-01 -2.20234e-01
       H  2.20480e+00 -2.34003e+00 -8.68067e-01
       H  1.65236e+00 -9.45132e-01 -9.66512e-02
       H  1.86030e+00  7.96344e-01  4.81234e-01
       H  1.23960e+00  6.67079e-01 -1.02337e+00
       H  1.49153e+00 -2.56394e+00  6.51340e-01
7
# CELL(abcABC):   14.00143    14.00143    14.00143    90.00000    90.00000    90.00000  Step:       23200  Bead:       2 positions{angstrom}  cell{angstrom}
       O  2.24241e+00 -2.04519e+00 -8.57970e-02
       O  1.24281e+00  2.53998e-01 -2.17162e-01
       H  3.13244e+00 -2.16108e+00 -5.32184e-02
       H  1.59923e+00 -1.04830e+00 -2.14753e-01
       H  1.28025e+00  1.19199e+00  2.90342e-01
       H  5.25827e-01  3.47093e-01 -7.67793e-01
       H  1.51490e+00 -2.70375e+00  5.42401e-02
7
# CELL(abcABC):   14.00143    14.00143    14.00143    90.00000    90.00000    90.00000  Step:       23600  Bead:       2 positions{angstrom}  cell{angstrom}
       O  2.30154e+00 -1.90214e+00  2.01734e-01
       O  1.21037e+00  1.11662e-01 -4.62582e-01
       H  3.22801e+00 -2.16496e+00 -3.49354e-01
       H  1.80059e+00 -7.90716e-01 -2.15549e-01
       H  3.34762e-01  5.38375e-01 -1.34100e-01
       H  1.45527e+00  5.98809e-01 -1.27186e+00
       H  2.21606e+00 -2.25534e+00  1.06776e+00
7
# CELL(abcABC):   14.00143    14.00143    14.00143    90.00000    90.00000    90.00000  Step:       24000  Bead:       2 positions{angstrom}  cell{angstrom}
       O  2.34148e+00 -1.83551e+00  3.64535e-01
       O  1.18265e+00  5.81892e-02 -6.62334e-01