7
# CELL(abcABC):   14.00143    14.00143    14.00143    90.00000    90.00000    90.00000  Step:           0  Bead:       4 positions{angstrom}  cell{angstrom}
       O  5.72211e-01 -8.20992e-01 -3.40858e-01
       O  2.93099e+00 -1.00086e+00  3.45000e-02
       H  1.15544e-01 -1.32891e+00 -1.03000e+00
       H  1.75146e+00 -9.10942e-01 -1.52650e-01
       H  3.30479e+00 -1.55124e+00  7.40818e-01
       H  3.58125e+00 -5.33487e-01 -5.13365e-01
       H  5.91684e-03 -2.31237e-01  1.81684e-01
7
# CELL(abcABC):   14.00143    14.00143    14.00143    90.00000    90.00000    90.00000  Step:         400  Bead:       4 positions{angstrom}  cell{angstrom}
       O  5.53652e-01 -8.77989e-01 -7.16786e-02
       O  2.97370e+00 -9.34540e-01 -2.03754e-01
       H  2.63595e-01 -1.51985e+00 -8.85404e-01
       H  1.92104e+00 -8.62199e-01  9.42215e-02
       H  3.57250e+00 -7.63929e-01  5.06546e-01
       H  3.23026e+00 -1.40663e+00 -9.67860e-01
       H -1.72529e-01 -2.02463e-01  1.56828e-01
7
# CELL(abcABC):   14.00143    14.00143    14.00143    90.00000    90.00000    90.00000  Step:         800  Bead:       4 positions{angstrom}  cell{angstrom}
       O  5.93905e-01 -1.15307e+00  1.36029e-01
       O  2.89802e+00 -6.29916e-01 -4.81195e-01
       H -6.70551e-02 -1.40997e+00 -5.11701e-01
       H  1.84836e+00 -1.06111e+00 -5.86219e-02
       H  3.36504e+00  2.25894e-01 -5.58389e-01
       H  3.46331e+00 -1.52189e+00 -6.99114e-01
       H  2.48864e-01 -1.23969e+00  9.58539e-01
7
# CELL(abcABC):   14.00143    14.00143    14.00143    90.00000    90.00000    90.00000  Step:        1200  Bead:       4 positions{angstrom}  cell{angstrom}
       O  5.84012e-01 -1.25984e+00  7.73559e-02
       O  2.93226e+00 -5.70316e-01 -3.73228e-01
       H  3.10334e-01 -1.90545e+00 -5.12148e-01
       H  1.87976e+00 -8.88739e-01 -2.36704e-01
       H  3.06765e+00  2.32705e-01 -8.81907e-01
       H  3.47125e+00 -1.36156e+00 -3.04336e-01
       H -1.69510e-01 -1.11019e+00  8.27908e-01
7
# CELL(abcABC):   14.00143    14.00143    14.00143    90.00000    90.00000    90.00000  Step:        1600  Bead:       4 positions{angstrom}  cell{angstrom}
       O  6.45093e-01 -1.45229e+00 -1.59308e-01
       O  2.84957e+00 -3.82642e-01 -5.92941e-02
       H  1.38489e-01 -1.64048e+00 -1.03091e+00
       H  1.83546e+00 -8.57758e-01  5.30894e-02
       H  2.80865e+00  5.26491e-01 -5.41314e-01
       H  3.58697e+00 -8.25083e-01 -5.43907e-01
       H -7.78036e-02 -1.25514e+00  5.21305e-01
7
# CELL(abcABC):   14.00143    14.00143    14.00143    90.00000    90.00000    90.00000  Step:        2000  Bead:       4 positions{angstrom}  cell{angstrom}
       O  7.67498e-01 -1.36134e+00 -6.49884e-01
       O  2.78440e+00 -4.43694e-01  2.84076e-01
       H  7.59405e-01 -2.06121e+00 -1.28196e+00
       H  1.84062e+00 -1.09423e+00 -1.27387e-01
       H  2.63757e+00 -3.79360e-01  1.26391e+00
       H  3.52753e+00 -1.91493e-01 -3.16625e-01
       H  3.55448e-02 -1.40966e+00 -4.11915e-02
7
# CELL(abcABC):   14.00143    14.00143    14.00143    90.00000    90.00000    90.00000  Step:        2400  Bead:       4 positions{angstrom}  cell{angstrom}
       O  7.70448e-01 -1.11478e+00 -8.51039e-01
       O  2.73699e+00 -6.08921e-01  5.02689e-01
       H  8.15126e-01 -1.97998e+00 -1.17808e+00
       H  1.54664e+00 -6.76492e-01 -2.70563e-01
       H  2.51573e+00 -4.86766e-01  1.37999e+00
       H  3.50866e+00 -1.30273e+00  5.63625e-01
       H -1.78643e-01 -8.15554e-01 -6.07277e-01
7
# CELL(abcABC):   14.00143    14.00143    14.00143    90.00000    90.00000    90.00000  Step:        2800  Bead:       4 positions{angstrom}  cell{angstrom}
       O  8.21397e-01 -8.48355e-01 -9.22111e-01
       O  2.71098e+00 -9.07844e-01  5.63797e-01
       H  7.35253e-01 -1.23790e+00 -1.83402e+00
       H  1.59586e+00 -1.01082e+00 -2.07226e-01
       H  3.69459e+00 -6.92434e-01  4.86456e-01
       H  2.41107e+00 -1.04945e+00  1.48266e+00
       H  2.05215e-01 -7.02889e-01 -1.88059e-01
7
# CELL(abcABC):   14.00143    14.00143    14.00143    90.00000    90.00000    90.00000  Step:        3200  Bead:       4 positions{angstrom}  cell{angstrom}
       O  8.96141e-01 -9.74002e-01 -1.00635e+00
       O  2.60782e+00 -8.98005e-01  6.84114e-01
       H  1.21777e+00 -6.05924e-01 -1.99107e+00
       H  1.77368e+00 -1.21602e+00 -7.11423e-02
       H  2.33656e+00 -1.42277e+00  1.47167e+00
       H  3.12380e+00 -4.94008e-02  8.46680e-01
       H  3.97342e-02 -7.83644e-01 -8.07468e-01
7
# CELL(abcABC):   14.00143    14.00143    14.00143    90.00000    90.00000    90.00000  Step:        3600  Bead:       4 positions{angstrom}  cell{angstrom}
       O  6.87326e-01 -1.13295e+00 -8.77037e-01
       O  2.74392e+00 -6.75621e-01  5.84492e-01
       H  7.57460e-01 -5.89692e-01 -1.66285e+00
       H  1.74069e+00 -8.69090e-01 -8.44504e-02
       H  3.32643e+00 -1.24948e+00  1.07018e+00
       H  3.10617e+00  1.86819e-01  3.89728e-01
       H  2.09283e-01 -1.99002e+00 -8.74710e-01
7
# CELL(abcABC):   14.00143    14.00143    14.00143    90.00000    90.00000    90.00000  Step:        4000  Bead:       4 positions{angstrom}  cell{angstrom}
       O  9.09358e-01 -1.63324e+00 -7.92286e-01
       O  2.58957e+00 -2.14364e-01  4.62695e-01
       H  7.68912e-01 -1.11980e+00 -1.63517e+00
       H  1.68844e+00 -1.08159e+00 -1.88889e-01
       H  2.47204e+00 -3.61315e-01  1.49381e+00
       H  2.97860e+00  6.22219e-01  8.54243e-02
       H  9.63067e-01 -2.50426e+00 -1.00448e+00
7
# CELL(abcABC):   14.00143    14.00143    14.00143    90.00000    90.00000    90.00000  Step:        4400  Bead:       4 positions{angstrom}  cell{angstrom}
       O  1.29978e+00 -1.82156e+00 -8.54106e-01
       O  2.19631e+00  1.65603e-03  5.24391e-01
       H  1.01142e+00 -1.83809e+00 -1.81160e+00
       H  1.73825e+00 -6.99161e-01 -1.64878e-01
       H  2.81561e+00  4.45076e-02  1.27466e+00
       H  2.26752e+00  9.25673e-01  2.79012e-01
       H  9.45003e-01 -2.72760e+00 -5.21922e-01
7
# CELL(abcABC):   14.00143    14.00143    14.00143    90.00000    90.00000    90.00000  Step:        4800  Bead:       4 positions{angstrom}  cell{angstrom}
       O  1.23252e+00 -1.66546e+00 -9.54277e-01
       O  2.25691e+00 -1.70691e-01  6.02550e-01
       H  1.09528e+00 -1.25914e+00 -1.88106e+00
       H  1.81387e+00 -1.14620e+00 -2.80779e-01
       H  2.97551e+00  6.07782e-01  6.02166e-01
       H  2.21479e+00 -4.43233e-01  1.54342e+00
       H  7.92500e-01 -2.42748e+00 -5.07388e-01
7
# CELL(abcABC):   14.00143    14.00143    14.00143    90.00000    90.00000    90.00000  Step:        5200  Bead:       4 positions{angstrom}  cell{angstrom}
       O  1.06033e+00 -1.57090e+00 -9.17967e-01
       O  2.43436e+00 -3.00260e-01  5.90438e-01
       H  4.93234e-01 -1.21496e+00 -1.72759e+00
       H  1.86927e+00 -7.77292e-01 -1.40726e-01
       H  2.53848e+00  4.77442e-01  9.12023e-01
       H  3.23447e+00 -6.17813e-01  7.17591e-01
       H  7.70725e-01 -2.14596e+00 -1.95698e-01
7
# CELL(abcABC):   14.00143    14.00143    14.00143    90.00000    90.00000    90.00000  Step:        5600  Bead:       4 positions{angstrom}  cell{angstrom}
       O  1.12023e+00 -1.45179e+00 -9.28909e-01
       O  2.50915e+00 -3.75024e-01  5.91907e-01
       H  1.47223e-01 -1.22062e+00 -1.02255e+00
       H  1.73937e+00 -7.94603e-01  2.59817e-02
       H  2.01956e+00  2.44870e-01  1.05917e+00
       H  3.57431e+00 -3.65260e-01  6.29798e-01
       H  1.20245e+00 -2.39016e+00 -7.44826e-01
7
# CELL(abcABC):   14.00143    14.00143    14.00143    90.00000    90.00000    90.00000  Step:        6000  Bead:       4 positions{angstrom}  cell{angstrom}
       O  1.13355e+00 -1.48828e+00 -9.76593e-01
       O  2.47401e+00 -3.42589e-01  6.54314e-01
       H  3.44983e-01 -8.63962e-01 -1.24647e+00
       H  1.89016e+00 -1.00276e+00 -8.69843e-02
       H  2.59795e+00 -8.19347e-01  1.52096e+00
       H  2.76910e+00  6.18749e-01  6.67513e-01
       H  1.18970e+00 -2.46633e+00 -1.45487e+00
7
# CELL(abcABC):   14.00143    14.00143    14.00143    90.00000    90.00000    90.00000  Step:        6400  Bead:       4 positions{angstrom}  cell{angstrom}
       O  1.26315e+00 -1.58909e+00 -9.19764e-01
       O  2.22963e+00 -2.05190e-01  6.35446e-01
       H  1.58159e+00 -1.93389e+00 -1.75647e+00
       H  1.68527e+00 -8.57505e-01 -6.48466e-02
       H  2.47892e+00 -6.36457e-01  1.54131e+00
       H  2.32080e+00  7.23678e-01  3.68229e-01
       H  7.49112e-01 -2.31172e+00 -5.74628e-01
7
# CELL(abcABC):   14.00143    14.00143    14.00143    90.00000    90.00000    90.00000  Step:        6800  Bead:       4 positions{angstrom}  cell{angstrom}
       O  1.59079e+00 -1.97151e+00 -7.55500e-01
       O  1.93616e+00  1.70628e-01  4.41392e-01
       H  1.68344e+00 -2.65586e+00 -1.19365e-01
       H  1.70562e+00 -8.98796e-01 -1.64401e-01
       H  2.03928e+00  2.06985e-01  1.27584e+00
       H  2.01365e+00  9.89158e-01  3.16619e-02
       H  9.47472e-01 -2.01547e+00 -1.46049e+00
7
# CELL(abcABC):   14.00143    14.00143    14.00143    90.00000    90.00000    90.00000  Step:        7200  Bead:       4 positions{angstrom}  cell{angstrom}
       O  1.63233e+00 -2.12126e+00 -5.40466e-01
       O  1.81347e+00  2.81572e-01  1.38754e-01
       H  1.62452e+00 -2.82622e+00  8.73539e-02
       H  1.63995e+00 -1.15496e+00 -2.70535e-01
       H  1.70913e+00  7.35762e-01  9.94828e-01
       H  2.36861e+00  9.08097e-01 -1.97970e-01
       H  9.62526e-01 -2.29537e+00 -1.24819e+00
7
# CELL(abcABC):   14.00143    14.00143    14.00143    90.00000    90.00000    90.00000  Step:        7600  Bead:       4 positions{angstrom}  cell{angstrom}
       O  1.97284e+00 -2.14861e+00 -2.81450e-01
       O  1.54560e+00  2.36343e-01 -6.45841e-02
       H  2.42734e+00 -2.63070e+00  5.20012e-01
       H  1.82146e+00 -9.02581e-01 -1.72732e-01
       H  1.29747e+00  6.28847e-01  7.66002e-01
       H  1.89202e+00  1.18035e+00 -6.29272e-01
       H  1.28258e+00 -2.58512e+00 -7.66236e-01
7
# CELL(abcABC):   14.00143    14.00143    14.00143    90.00000    90.00000    90.00000  Step:        8000  Bead:       4 positions{angstrom}  cell{angstrom}
       O  2.31117e+00 -1.95348e+00  9.47419e-02
       O  1.15599e+00  1.05620e-01 -3.42571e-01
       H  3.23833e+00 -1.81160e+00  2.42330e-01
       H  1.79445e+00 -9.20792e-01 -3.05951e-02
       H  1.40503e+00  9.45717e-01  6.53731e-02
       H  4.11026e-01  2.82845e-01 -8.31369e-01
       H  2.00493e+00 -2.81003e+00 -2.64615e-03
7
# CELL(abcABC):   14.00143    14.00143    14.00143    90.00000    90.00000    90.00000  Step:        8400  Bead:       4 positions{angstrom}  cell{angstrom}
       O  2.49110e+00 -1.78337e+00  2.22960e-01
       O  9.85636e-01  7.83166e-03 -5.10008e-01
       H  3.37728e+00 -1.59526e+00  7.64508e-01
       H  1.76414e+00 -7.36120e-01 -1.57896e-01
       H  3.99473e-01 -1.41388e-01 -1.33353e+00
       H  6.82069e-01  7.61889e-01  1.25773e-01
       H  2.69939e+00 -2.54543e+00 -4.57654e-01
7
# CELL(abcABC):   14.00143    14.00143    14.00143    90.00000    90.00000    90.00000  Step:        8800  Bead:       4 positions{angstrom}  cell{angstrom}
       O  2.56035e+00 -1.55444e+00  4.23536e-01
       O  9.79943e-01 -1.89654e-01 -7.60279e-01
       H  3.08796e+00 -1.23804e+00  1.20372e+00
       H  1.51021e+00 -7.92571e-01 -7.22098e-02
       H  8.14089e-03 -3.12631e-01 -9.76524e-01
       H  9.42088e-01  7.91187e-01 -8.47366e-01
       H  2.95496e+00 -2.31941e+00 -1.61069e-01
7
# CELL(abcABC):   14.00143    14.00143    14.00143    90.00000    90.00000    90.00000  Step:        9200  Bead:       4 positions{angstrom}  cell{angstrom}
       O  2.56162e+00 -1.38359e+00  6.08388e-01
       O  9.79762e-01 -3.85531e-01 -9.08127e-01
       H  2.74251e+00 -9.08350e-01  1.46247e+00
       H  1.86718e+00 -8.40149e-01 -1.96701e-01
       H  2.91024e-01 -1.02850e+00 -1.30379e+00
       H  7.98297e-01  5.03326e-01 -1.19413e+00
       H  3.31621e+00 -2.00921e+00  3.35614e-01
7
# CELL(abcABC):   14.00143    14.00143    14.00143    90.00000    90.00000    90.00000  Step:        9600  Bead:       4 positions{angstrom}  cell{angstrom}
       O  2.56996e+00 -1.42295e+00  5.89431e-01
       O  9.55340e-01 -4.16221e-01 -9.14903e-01
       H  3.58442e+00 -1.35858e+00  8.08267e-01
       H  1.90928e+00 -1.12680e+00 -2.60458e-01
       H  1.06286e-01 -9.12252e-01 -1.07961e+00
       H  8.06267e-01  5.62223e-01 -8.37291e-01
       H  2.05783e+00 -1.93364e+00  1.16272e+00
7
# CELL(abcABC):   14.00143    14.00143    14.00143    90.00000    90.00000    90.00000  Step:       10000  Bead:       4 positions{angstrom}  cell{angstrom}
       O  2.52384e+00 -1.59483e+00  4.71714e-01
       O  1.00585e+00 -3.11733e-01 -8.57599e-01
       H  3.46927e+00 -1.85139e+00  4.71543e-01
       H  1.71142e+00 -1.07336e+00 -1.80051e-01
       H  5.48374e-01  3.60702e-01 -4.27338e-01
       H  1.25746e+00 -1.78787e-01 -1.75440e+00
       H  2.11061e+00 -1.53440e+00  1.32636e+00
7
# CELL(abcABC):   14.00143    14.00143    14.00143    90.00000    90.00000    90.00000  Step:       10400  Bead:       4 positions{angstrom}  cell{angstrom}
       O  2.29330e+00 -1.82845e+00  4.34547e-01
       O  1.23731e+00 -6.97778e-02 -7.65661e-01
       H  2.73437e+00 -2.65450e+00  4.36376e-01
       H  1.70926e+00 -1.17238e+00 -3.09065e-01
       H  1.23228e+00  8.65676e-01 -4.01412e-01
       H  8.79495e-01 -2.37060e-01 -1.75714e+00
       H  2.44804e+00 -1.34014e+00  1.24122e+00
7
# CELL(abcABC):   14.00143    14.00143    14.00143    90.00000    90.00000    90.00000  Step:       10800  Bead:       4 positions{angstrom}  cell{angstrom}
       O  2.13246e+00 -1.66880e+00  6.91993e-01
       O  1.39350e+00 -1.51718e-01 -9.69244e-01
       H  1.69063e+00 -2.54765e+00  7.30394e-01
       H  1.85268e+00 -8.56417e-01 -2.93954e-01
       H  5.45031e-01  1.34986e-01 -6.04606e-01
       H  1.69968e+00  4.93227e-01 -1.73781e+00
       H  2.80895e+00 -1.46717e+00  1.31995e+00
7
# CELL(abcABC):   14.00143    14.00143    14.00143    90.00000    90.00000    90.00000  Step:       11200  Bead:       4 positions{angstrom}  cell{angstrom}
       O  2.30288e+00 -1.52991e+00  7.43227e-01
       O  1.28441e+00 -2.53151e-01 -1.06733e+00
       H  1.58501e+00 -1.82043e+00  1.28815e+00
       H  1.94211e+00 -9.67213e-01 -9.55509e-02
       H  4.19693e-01 -7.05480e-01 -1.30899e+00
       H  1.26742e+00  6.26002e-01 -1.45217e+00
       H  2.96315e+00 -9.18472e-01  1.34376e+00
7
# CELL(abcABC):   14.00143    14.00143    14.00143    90.00000    90.00000    90.00000  Step:       11600  Bead:       4 positions{angstrom}  cell{angstrom}
       O  2.15431e+00 -1.49678e+00  8.37733e-01
       O  1.39054e+00 -2.64935e-01 -1.12303e+00
       H  1.50607e+00 -2.00554e+00  1.22285e+00
       H  1.83329e+00 -8.67540e-01 -5.62644e-02
       H  1.73331e+00 -5.13592e-01 -1.96121e+00
       H  4.36062e-01 -2.46955e-01 -1.04220e+00
       H  2.93214e+00 -1.51008e+00  1.30957e+00
7
# CELL(abcABC):   14.00143    14.00143    14.00143    90.00000    90.00000    90.00000  Step:       12000  Bead:       4 positions{angstrom}  cell{angstrom}
       O  2.11184e+00 -1.37274e+00  9.18121e-01
       O  1.41079e+00 -4.45154e-01 -1.18996e+00
       H  1.91398e+00 -1.25636e+00  1.90840e+00
       H  1.57621e+00 -1.01125e+00 -1.95669e-01
       H  2.03197e+00  2.91620e-01 -1.53516e+00
       H  5.49868e-01 -6.11895e-01 -1.74546e+00
       H  2.93976e+00 -1.87493e+00  8.83379e-01
7
# CELL(abcABC):   14.00143    14.00143    14.00143    90.00000    90.00000    90.00000  Step:       12400  Bead:       4 positions{angstrom}  cell{angstrom}
       O  2.14559e+00 -1.22355e+00  9.68083e-01
       O  1.30057e+00 -5.77548e-01 -1.24845e+00
       H  1.79394e+00 -8.07616e-01  1.89864e+00
       H  1.52538e+00 -8.42242e-01 -1.58463e-01
       H  1.63631e+00  2.90565e-01 -1.70902e+00
       H  7.02435e-01 -8.54563e-01 -1.88189e+00
       H  3.11776e+00 -1.54820e+00  8.39593e-01
7
# CELL(abcABC):   14.00143    14.00143    14.00143    90.00000    90.00000    90.00000  Step:       12800  Bead:       4 positions{angstrom}  cell{angstrom}
       O  2.26272e+00 -1.27367e+00  9.37258e-01
       O  1.23724e+00 -6.41796e-01 -1.17144e+00
       H  1.92364e+00 -7.97826e-01  1.63106e+00
       H  1.87792e+00 -9.98588e-01 -1.90554e-01
       H  1.61774e+00  2.25162e-01 -1.51590e+00
       H  3.16170e-01 -9.83500e-01 -1.45031e+00
       H  3.18643e+00 -1.65392e+00  9.15408e-01
7
# CELL(abcABC):   14.00143    14.00143    14.00143    90.00000    90.00000    90.00000  Step:       13200  Bead:       4 positions{angstrom}  cell{angstrom}
       O  2.22453e+00 -1.47758e+00  8.91758e-01
       O  1.29785e+00 -4.25406e-01 -1.14474e+00
       H  1.77795e+00 -1.28864e+00  1.71720e+00
       H  2.07952e+00 -1.01184e+00 -1.00228e-01
       H  1.32062e+00  5.76231e-01 -1.30565e+00
       H  7.23689e-01 -8.95727e-01 -1.74673e+00
       H  3.07202e+00 -1.90288e+00  9.20005e-01
7
# CELL(abcABC):   14.00143    14.00143    14.00143    90.00000    90.00000    90.00000  Step:       13600  Bead:       4 positions{angstrom}  cell{angstrom}
       O  2.26174e+00 -1.44032e+00  8.46213e-01
       O  1.26864e+00 -3.82043e-01 -1.18887e+00
       H  2.05510e+00 -1.29476e+00  1.79593e+00
       H  1.78763e+00 -8.67577e-01 -2.54080e-01
       H  3.76420e-01 -2.38490e-01 -1.43414e+00
       H  1.39100e+00 -9.07035e-01 -1.87341e+00
       H  2.80380e+00 -2.33046e+00  6.97776e-01
7
# CELL(abcABC):   14.00143    14.00143    14.00143    90.00000    90.00000    90.00000  Step:       14000  Bead:       4 positions{angstrom}  cell{angstrom}
       O  2.30665e+00 -1.43113e+00  6.82306e-01
       O  1.17311e+00 -3.40878e-01 -1.04345e+00
       H  1.97343e+00 -2.28637e+00  6.34880e-01
       H  1.98509e+00 -8.33124e-01 -8.20204e-02
       H  2.07946e-01 -4.14329e-01 -8.53497e-01
       H  1.70566e+00 -4.88632e-01 -1.93304e+00
       H  3.33015e+00 -1.61089e+00  7.08255e-01
7
# CELL(abcABC):   14.00143    14.00143    14.00143    90.00000    90.00000    90.00000  Step:       14400  Bead:       4 positions{angstrom}  cell{angstrom}
       O  2.33038e+00 -1.55637e+00  6.03456e-01
       O  1.14615e+00 -2.25856e-01 -9.05416e-01
       H  2.29219e+00 -2.52990e+00  5.76559e-01
       H  1.69713e+00 -8.27258e-01 -7.67722e-02
       H  7.03875e-01 -8.75958e-01 -1.52254e+00
       H  1.29869e+00  7.33113e-01 -1.35845e+00
       H  3.18005e+00 -1.45805e+00  1.09799e+00
7
# CELL(abcABC):   14.00143    14.00143    14.00143    90.00000    90.00000    90.00000  Step:       14800  Bead:       4 positions{angstrom}  cell{angstrom}
       O  2.23225e+00 -1.54661e+00  7.51214e-01
       O  1.31391e+00 -2.55955e-01 -1.07030e+00
       H  1.94758e+00 -1.40914e+00  1.72295e+00
       H  1.61327e+00 -1.08497e+00 -1.15021e-01
       H  9.00384e-01 -4.03355e-01 -1.92704e+00
       H  1.58342e+00  7.11761e-01 -1.20611e+00
       H  2.78701e+00 -2.37783e+00  6.60897e-01
7
# CELL(abcABC):   14.00143    14.00143    14.00143    90.00000    90.00000    90.00000  Step:       15200  Bead:       4 positions{angstrom}  cell{angstrom}
       O  1.98264e+00 -1.74382e+00  6.47901e-01
       O  1.54921e+00 -1.04024e-01 -1.08018e+00
       H  1.56337e+00 -1.41456e+00  1.59669e+00
       H  1.68278e+00 -9.49589e-01 -2.91567e-01
       H  1.76972e+00  3.86273e-02 -1.94859e+00
       H  1.18038e+00  8.10109e-01 -7.34129e-01
       H  2.44747e+00 -2.54557e+00  5.22728e-01
7
# CELL(abcABC):   14.00143    14.00143    14.00143    90.00000    90.00000    90.00000  Step:       15600  Bead:       4 positions{angstrom}  cell{angstrom}
       O  1.97868e+00 -1.73423e+00  5.48973e-01
       O  1.54874e+00 -4.49654e-04 -9.43620e-01
       H  2.18821e+00 -1.30908e+00  1.43034e+00
       H  1.89531e+00 -1.14206e+00 -2.87467e-01
       H  2.11972e+00  7.09966e-01 -1.50315e+00
       H  5.87714e-01  1.39378e-01 -8.32642e-01
       H  2.14181e+00 -2.67613e+00  5.66246e-01
7
# CELL(abcABC):   14.00143    14.00143    14.00143    90.00000    90.00000    90.00000  Step:       16000  Bead:       4 positions{angstrom}  cell{angstrom}
       O  2.30541e+00 -1.64117e+00  4.77492e-01
       O  1.21397e+00 -6.31784e-02 -7.90282e-01
       H  2.88960e+00 -1.72836e+00  1.37805e+00
       H  1.74654e+00 -8.21158e-01 -2.24077e-01
       H  1.65161e+00  7.91344e-01 -9.57249e-01
       H  5.37859e-01 -4.46298e-01 -1.43518e+00
       H  2.42153e+00 -2.52365e+00  3.07038e-01
7
# CELL(abcABC):   14.00143    14.00143    14.00143    90.00000    90.00000    90.00000  Step:       16400  Bead:       4 positions{angstrom}  cell{angstrom}
       O  2.08504e+00 -1.73167e+00  7.39000e-01
       O  1.39859e+00 -7.47932e-02 -9.97010e-01
       H  2.71925e+00 -1.53355e+00  1.38104e+00
       H  1.60731e+00 -5.93682e-01 -2.37983e-01
       H  1.42813e+00  8.44559e-01 -8.46613e-01
       H  1.07641e+00 -4.82637e-01 -1.74770e+00
       H  1.68288e+00 -2.63093e+00  8.51723e-01
7
# CELL(abcABC):   14.00143    14.00143    14.00143    90.00000    90.00000    90.00000  Step:       16800  Bead:       4 positions{angstrom}  cell{angstrom}
       O  1.85915e+00 -1.73933e+00  8.16154e-01
       O  1.58385e+00 -1.42514e-01 -1.08277e+00
       H  2.77496e+00 -1.60274e+00  8.97588e-01
       H  1.77365e+00 -7.99941e-01 -1.80726e-01
       H  1.87599e+00  8.65582e-01 -9.20749e-01
       H  1.61473e+00 -3.10485e-01 -2.01589e+00
       H  1.35788e+00 -2.58719e+00  7.76969e-01
7
# CELL(abcABC):   14.00143    14.00143    14.00143    90.00000    90.00000    90.00000  Step:       17200  Bead:       4 positions{angstrom}  cell{angstrom}
       O  1.98032e+00 -1.62625e+00  6.94242e-01
       O  1.42728e+00 -2.06736e-01 -1.09390e+00
       H  1.81498e+00 -1.28064e+00  1.54541e+00
       H  1.50859e+00 -9.75377e-01 -4.31185e-01
       H  1.83081e+00  5.69318e-01 -9.05413e-01
       H  1.76247e+00 -4.03427e-01 -2.06479e+00
       H  2.83672e+00 -2.11860e+00  5.44614e-01
7
# CELL(abcABC):   14.00143    14.00143    14.00143    90.00000    90.00000    90.00000  Step:       17600  Bead:       4 positions{angstrom}  cell{angstrom}
       O  2.09124e+00 -1.54824e+00  8.03593e-01
       O  1.33853e+00 -2.13898e-01 -1.16358e+00
       H  2.17799e+00 -1.16631e+00  1.68103e+00
       H  1.59909e+00 -9.41661e-01 -7.31776e-02
       H  1.18965e+00  8.06669e-01 -1.34845e+00
       H  1.58717e+00 -8.11601e-01 -1.88032e+00
       H  2.86141e+00 -2.12822e+00  7.51605e-01
7
# CELL(abcABC):   14.00143    14.00143    14.00143    90.00000    90.00000    90.00000  Step:       18000  Bead:       4 positions{angstrom}  cell{angstrom}
       O  2.48374e+00 -1.49521e+00  6.81615e-01
       O  1.06489e+00 -2.88207e-01 -1.02022e+00
       H  2.40769e+00 -1.61995e+00  1.54742e+00
       H  1.75373e+00 -1.10236e+00 -1.51811e-01
       H  1.72388e-01 -5.04074e-03 -8.35596e-01
       H  1.20205e+00  2.89232e-02 -1.90236e+00
       H  3.28515e+00 -1.97488e+00  5.28695e-01
7
# CELL(abcABC):   14.00143    14.00143    14.00143    90.00000    90.00000    90.00000  Step:       18400  Bead:       4 positions{angstrom}  cell{angstrom}
       O  2.52020e+00 -1.32296e+00  7.54342e-01
       O  1.02702e+00 -5.18861e-01 -1.01771e+00
       H  2.47617e+00 -2.04417e+00  1.44436e+00
       H  1.69337e+00 -8.89838e-01 -1.70727e-01
       H  6.16511e-01  2.97230e-01 -8.74243e-01
       H  1.10603e+00 -5.94988e-01 -2.08187e+00
       H  3.46372e+00 -8.29877e-01  8.45060e-01
7
# CELL(abcABC):   14.00143    14.00143    14.00143    90.00000    90.00000    90.00000  Step:       18800  Bead:       4 positions{angstrom}  cell{angstrom}
       O  2.58252e+00 -1.26128e+00  6.60166e-01
       O  9.78792e-01 -5.95865e-01 -9.76810e-01
       H  2.86648e+00 -2.17040e+00  8.71239e-01
       H  1.62959e+00 -1.20201e+00 -2.33470e-01
       H  2.91338e-01  1.58038e-01 -8.11403e-01
       H  8.63141e-01 -8.40860e-01 -1.83719e+00
       H  2.84155e+00 -5.11009e-01  1.22083e+00
7
# CELL(abcABC):   14.00143    14.00143    14.00143    90.00000    90.00000    90.00000  Step:       19200  Bead:       4 positions{angstrom}  cell{angstrom}
       O  2.38338e+00 -1.48530e+00  7.30779e-01
       O  1.07630e+00 -3.61822e-01 -1.01926e+00
       H  3.31810e+00 -1.44840e+00  7.23738e-01
       H  1.53671e+00 -6.36506e-01 -1.61500e-01
       H  5.01875e-01  4.10224e-01 -9.16440e-01
       H  1.25252e+00 -1.01552e+00 -1.68267e+00
       H  2.11273e+00 -1.76650e+00  1.59541e+00
7
# CELL(abcABC):   14.00143    14.00143    14.00143    90.00000    90.00000    90.00000  Step:       19600  Bead:       4 positions{angstrom}  cell{angstrom}
       O  2.07118e+00 -1.62154e+00  7.61150e-01
       O  1.35200e+00 -1.87542e-01 -1.01338e+00
       H  2.14299e+00 -1.42117e+00  1.67532e+00
       H  1.58525e+00 -7.21708e-01 -1.85111e-01
       H  5.43223e-01  8.96261e-02 -1.17100e+00
       H  1.96126e+00  2.48992e-01 -1.61554e+00
       H  2.13435e+00 -2.56285e+00  5.64385e-01
7
# CELL(abcABC):   14.00143    14.00143    14.00143    90.00000    90.00000    90.00000  Step:       20000  Bead:       4 positions{angstrom}  cell{angstrom}
       O  2.07095e+00 -1.78978e+00  5.85195e-01
       O  1.44023e+00  2.46586e-02 -8.95567e-01
       H  2.33137e+00 -1.46254e+00  1.49637e+00
       H  1.84954e+00 -8.77961e-01 -9.93410e-02
       H  1.08007e+00 -4.81304e-01 -1.68800e+00
       H  1.00269e+00  7.93660e-01 -5.76283e-01
       H  2.40706e+00 -2.65990e+00  5.49322e-02
7
# CELL(abcABC):   14.00143    14.00143    14.00143    90.00000    90.00000    90.00000  Step:       20400  Bead:       4 positions{angstrom}  cell{angstrom}
       O  2.06846e+00 -1.94831e+00  3.41499e-01
       O  1.40741e+00  1.08794e-01 -7.19324e-01
       H  2.89424e+00 -2.01400e+00  9.18166e-01
       H  1.72961e+00 -9.11684e-01 -9.52040e-02
       H  2.05413e+00  5.22612e-01 -1.31777e+00
       H  5.17151e-01  4.63084e-01 -1.09926e+00
       H  1.26437e+00 -2.39538e+00  8.89389e-01
7
# CELL(abcABC):   14.00143    14.00143    14.00143    90.00000    90.00000    90.00000  Step:       20800  Bead:       4 positions{angstrom}  cell{angstrom}
       O  2.15884e+00 -1.96379e+00  2.79004e-01
       O  1.27616e+00  1.33577e-01 -5.68258e-01
       H  2.99117e+00 -2.02203e+00  1.10900e-01
       H  1.50255e+00 -7.09863e-01  2.17707e-03
       H  1.67372e+00  1.02803e+00 -8.00254e-01
       H  3.90720e-01  1.65919e-01 -8.98119e-01
       H  1.96627e+00 -2.55153e+00  9.01345e-01
7
# CELL(abcABC):   14.00143    14.00143    14.00143    90.00000    90.00000    90.00000  Step:       21200  Bead:       4 positions{angstrom}  cell{angstrom}
       O  2.08831e+00 -1.92503e+00  3.03219e-01
       O  1.32763e+00  8.88600e-02 -5.65541e-01
       H  2.91851e+00 -2.23436e+00  5.82077e-01
       H  1.69288e+00 -1.10121e+00 -1.84498e-01
       H  1.32352e+00  8.83369e-01 -8.42423e-02
       H  7.48180e-01  1.55240e-01 -1.38404e+00
       H  1.50477e+00 -2.76152e+00  3.26099e-01
7
# CELL(abcABC):   14.00143    14.00143    14.00143    90.00000    90.00000    90.00000  Step:       21600  Bead:       4 positions{angstrom}  cell{angstrom}
       O  2.11000e+00 -1.92459e+00  3.40590e-01
       O  1.41488e+00  8.29600e-02 -6.74342e-01
       H  1.78481e+00 -2.12239e+00  1.21481e+00
       H  1.93954e+00 -8.57190e-01 -1.54979e-01
       H  9.37110e-01  7.22500e-01 -1.54095e-01
       H  1.13579e+00  1.22058e-01 -1.65740e+00
       H  2.30883e+00 -2.77225e+00 -1.21639e-01
7
# CELL(abcABC):   14.00143    14.00143    14.00143    90.00000    90.00000    90.00000  Step:       22000  Bead:       4 positions{angstrom}  cell{angstrom}
       O  1.98175e+00 -1.87854e+00  4.75264e-01
       O  1.53969e+00  5.65895e-02 -8.27849e-01
       H  1.44022e+00 -2.51692e+00  8.77758e-01
       H  1.79591e+00 -9.25490e-01 -4.85664e-02
       H  8.87930e-01  6.26462e-01 -4.14163e-01
       H  2.15111e+00  5.80779e-01 -1.20027e+00
       H  2.72277e+00 -2.32440e+00  3.33499e-01
7
# CELL(abcABC):   14.00143    14.00143    14.00143    90.00000    90.00000    90.00000  Step:       22400  Bead:       4 positions{angstrom}  cell{angstrom}
       O  1.81913e+00 -2.05767e+00  2.56987e-01
       O  1.67997e+00  2.26962e-01 -5.99120e-01
       H  1.35054e+00 -2.62152e+00 -3.47603e-01
       H  1.60182e+00 -9.89647e-01 -6.11076e-02
       H  1.07709e+00  9.13348e-01 -2.70669e-01
       H  2.50351e+00  6.00067e-01 -9.02112e-01
       H  1.85666e+00 -2.31281e+00  1.27335e+00
7
# CELL(abcABC):   14.00143    14.00143    14.00143    90.00000    90.00000    90.00000  Step:       22800  Bead:       4 positions{angstrom}  cell{angstrom}
       O  2.02037e+00 -2.11630e+00 -4.20373e-02
       O  1.52955e+00  2.43555e-01 -2.71073e-01
       H  2.11318e+00 -2.60982e+00 -8.37712e-01
       H  1.64306e+00 -8.09665e-01 -3.12432e-01
       H  1.89891e+00  5.87255e-01  4.49078e-01
       H  1.32384e+00  9.78431e-01 -8.68705e-01
       H  1.48725e+00 -2.73892e+00  5.31773e-01
7
# CELL(abcABC):   14.00143    14.00143    14.00143    90.00000    90.00000    90.00000  Step:       23200  Bead:       4 positions{angstrom}  cell{angstrom}
       O  2.24203e+00 -2.12763e+00 -8.92342e-02
       O  1.31248e+00  2.03665e-01 -1.87008e-01
       H  3.04998e+00 -2.53246e+00 -4.03779e-02
       H  1.81818e+00 -8.90068e-01 -3.44830e-01
       H  1.36617e+00  9.87248e-01  3.73330e-01
       H  6.39894e-01  3.24197e-01 -8.67572e-01
       H  1.50244e+00 -2.72113e+00 -6.71037e-03
7
# CELL(abcABC):   14.00143    14.00143    14.00143    90.00000    90.00000    90.00000  Step:       23600  Bead:       4 positions{angstrom}  cell{angstrom}
       O  2.30481e+00 -1.94107e+00  1.59806e-01
       O  1.19480e+00  8.64154e-02 -4.77708e-01
       H  3.18814e+00 -2.17326e+00 -2.39575e-01
       H  1.72271e+00 -9.25876e-01 -2.10780e-01
       H  4.38979e-01  3.23820e-01 -4.07782e-02
       H  1.54222e+00  5.24990e-01 -1.31111e+00
       H  2.11023e+00 -2.33340e+00  1.08216e+00
7
# CELL(abcABC):   14.00143    14.00143    14.00143    90.00000    90.00000    90.00000  Step:       24000  Bead:       4 positions{angstrom}  cell{angstrom}
       O  2.26671e+00 -1.81274e+00  4.02501e-01
       O  1.19368e+00 -6.42747e-03 -7.09791e-01