7
# CELL(abcABC):   14.00143    14.00143    14.00143    90.00000    90.00000    90.00000  Step:           0  Bead:       3 positions{angstrom}  cell{angstrom}
       O  5.72211e-01 -8.20992e-01 -3.40858e-01
       O  2.93099e+00 -1.00086e+00  3.45000e-02
       H  1.15544e-01 -1.32891e+00 -1.03000e+00
       H  1.75146e+00 -9.10942e-01 -1.52650e-01
       H  3.30479e+00 -1.55124e+00  7.40818e-01
       H  3.58125e+00 -5.33487e-01 -5.13365e-01
       H  5.91684e-03 -2.31237e-01  1.81684e-01
7
# CELL(abcABC):   14.00143    14.00143    14.00143    90.00000    90.00000    90.00000  Step:         400  Bead:       3 positions{angstrom}  cell{angstrom}
       O  5.67270e-01 -8.63386e-01 -6.57147e-02
       O  2.94003e+00 -9.18006e-01 -1.85805e-01
       H  1.73350e-01 -1.38904e+00 -7.55842e-01
       H  1.83943e+00 -8.38601e-01  3.57398e-02
       H  3.54624e+00 -7.31267e-01  6.05363e-01
       H  3.23611e+00 -1.51756e+00 -9.03250e-01
       H -2.16172e-02 -1.57792e-01  2.01515e-01
7
# CELL(abcABC):   14.00143    14.00143    14.00143    90.00000    90.00000    90.00000  Step:         800  Bead:       3 positions{angstrom}  cell{angstrom}
       O  5.97792e-01 -1.14716e+00  1.39010e-01
       O  2.92001e+00 -6.36138e-01 -4.49955e-01
       H  3.48271e-02 -1.43147e+00 -5.81227e-01
       H  1.87025e+00 -9.41403e-01 -6.81209e-02
       H  3.52783e+00 -2.00461e-04 -5.32296e-01
       H  3.45385e+00 -1.40587e+00 -3.67910e-01
       H  9.51409e-03 -1.28807e+00  9.63677e-01
7
# CELL(abcABC):   14.00143    14.00143    14.00143    90.00000    90.00000    90.00000  Step:        1200  Bead:       3 positions{angstrom}  cell{angstrom}
       O  6.26217e-01 -1.24197e+00  6.01455e-02
       O  2.90721e+00 -5.78390e-01 -3.16446e-01
       H  3.16351e-01 -1.77998e+00 -6.27744e-01
       H  1.95877e+00 -7.56483e-01 -3.90097e-01
       H  3.43063e+00  1.32996e-01 -8.66320e-01
       H  3.44060e+00 -1.42129e+00 -3.61705e-01
       H  2.78363e-02 -1.02849e+00  8.75946e-01
7
# CELL(abcABC):   14.00143    14.00143    14.00143    90.00000    90.00000    90.00000  Step:        1600  Bead:       3 positions{angstrom}  cell{angstrom}
       O  6.36837e-01 -1.44876e+00 -1.91981e-01
       O  2.92446e+00 -4.07213e-01 -2.75575e-02
       H  1.50759e-01 -1.64686e+00 -9.75979e-01
       H  1.88634e+00 -9.00261e-01  1.84820e-01
       H  2.82944e+00  5.86593e-01 -4.36371e-01
       H  3.53599e+00 -8.41537e-01 -5.60604e-01
       H  7.23106e-02 -1.46344e+00  5.03133e-01
7
# CELL(abcABC):   14.00143    14.00143    14.00143    90.00000    90.00000    90.00000  Step:        2000  Bead:       3 positions{angstrom}  cell{angstrom}
       O  7.56472e-01 -1.40857e+00 -6.10285e-01
       O  2.76255e+00 -3.88676e-01  2.43165e-01
       H  8.95801e-01 -2.03203e+00 -1.28687e+00
       H  1.83462e+00 -9.56997e-01 -1.96059e-01
       H  2.78914e+00 -2.21878e-01  1.19177e+00
       H  3.44073e+00  4.83984e-03 -3.34817e-01
       H -1.23499e-02 -1.46849e+00  7.93088e-02
7
# CELL(abcABC):   14.00143    14.00143    14.00143    90.00000    90.00000    90.00000  Step:        2400  Bead:       3 positions{angstrom}  cell{angstrom}
       O  7.56408e-01 -1.11115e+00 -8.75613e-01
       O  2.73193e+00 -6.01774e-01  4.73839e-01
       H  8.20654e-01 -2.03966e+00 -1.30779e+00
       H  1.69974e+00 -7.80094e-01 -2.30628e-01
       H  2.52445e+00 -7.33851e-01  1.39249e+00
       H  3.48566e+00 -1.18337e+00  2.81208e-01
       H -1.84225e-01 -6.99786e-01 -5.54029e-01
7
# CELL(abcABC):   14.00143    14.00143    14.00143    90.00000    90.00000    90.00000  Step:        2800  Bead:       3 positions{angstrom}  cell{angstrom}
       O  8.51724e-01 -8.51535e-01 -9.08412e-01
       O  2.68678e+00 -9.37136e-01  5.38206e-01
       H  5.46264e-01 -1.25647e+00 -1.71265e+00
       H  1.88946e+00 -8.57977e-01 -4.16282e-01
       H  3.54193e+00 -5.02071e-01  5.05687e-01
       H  2.45716e+00 -1.00548e+00  1.45174e+00
       H  1.80013e-01 -6.68519e-01 -2.66569e-01
7
# CELL(abcABC):   14.00143    14.00143    14.00143    90.00000    90.00000    90.00000  Step:        3200  Bead:       3 positions{angstrom}  cell{angstrom}
       O  9.34525e-01 -9.63777e-01 -1.05072e+00
       O  2.61598e+00 -8.53482e-01  7.04784e-01
       H  1.00260e+00 -6.58816e-01 -1.96644e+00
       H  1.75369e+00 -1.25848e+00  1.42257e-02
       H  2.41301e+00 -1.41678e+00  1.43763e+00
       H  3.12233e+00  2.01066e-02  5.67026e-01
       H -7.55313e-02 -8.01150e-01 -8.78351e-01
7
# CELL(abcABC):   14.00143    14.00143    14.00143    90.00000    90.00000    90.00000  Step:        3600  Bead:       3 positions{angstrom}  cell{angstrom}
       O  6.74630e-01 -1.20018e+00 -9.20889e-01
       O  2.72059e+00 -6.87824e-01  6.18229e-01
       H  4.49910e-01 -6.34155e-01 -1.68782e+00
       H  1.80034e+00 -9.06399e-01 -1.19900e-02
       H  3.25063e+00 -1.30496e+00  1.22200e+00
       H  3.30532e+00  5.08152e-02  4.06893e-01
       H  1.39590e-01 -2.11967e+00 -8.29065e-01
7
# CELL(abcABC):   14.00143    14.00143    14.00143    90.00000    90.00000    90.00000  Step:        4000  Bead:       3 positions{angstrom}  cell{angstrom}
       O  9.45654e-01 -1.68980e+00 -8.09098e-01
       O  2.50405e+00 -2.62940e-01  5.38791e-01
       H  8.04392e-01 -1.14929e+00 -1.51014e+00
       H  1.77797e+00 -9.78259e-01 -1.77304e-01
       H  2.70977e+00 -3.73374e-01  1.53884e+00
       H  2.99739e+00  5.23145e-01  1.04036e-01
       H  9.11454e-01 -2.56987e+00 -9.96692e-01
7
# CELL(abcABC):   14.00143    14.00143    14.00143    90.00000    90.00000    90.00000  Step:        4400  Bead:       3 positions{angstrom}  cell{angstrom}
       O  1.33250e+00 -1.83855e+00 -8.41290e-01
       O  2.18601e+00 -1.83379e-02  5.49577e-01
       H  1.08438e+00 -1.77781e+00 -1.81644e+00
       H  1.65755e+00 -9.37117e-01 -2.86281e-01
       H  2.92997e+00 -2.53778e-01  1.26736e+00
       H  2.16608e+00  8.65094e-01  1.11160e-01
       H  8.32774e-01 -2.58147e+00 -4.82293e-01
7
# CELL(abcABC):   14.00143    14.00143    14.00143    90.00000    90.00000    90.00000  Step:        4800  Bead:       3 positions{angstrom}  cell{angstrom}
       O  1.23608e+00 -1.68602e+00 -9.29386e-01
       O  2.29914e+00 -1.38746e-01  5.90804e-01
       H  1.26177e+00 -1.23226e+00 -1.88292e+00
       H  1.65002e+00 -1.05278e+00 -1.31078e-01
       H  2.97588e+00  5.99563e-01  4.64112e-01
       H  2.23699e+00 -6.04406e-01  1.55105e+00
       H  4.86132e-01 -2.25308e+00 -6.13001e-01
7
# CELL(abcABC):   14.00143    14.00143    14.00143    90.00000    90.00000    90.00000  Step:        5200  Bead:       3 positions{angstrom}  cell{angstrom}
       O  1.05573e+00 -1.55597e+00 -9.06676e-01
       O  2.47709e+00 -2.64869e-01  6.04556e-01
       H  5.56445e-01 -1.16206e+00 -1.66018e+00
       H  1.76668e+00 -9.27113e-01 -5.85659e-02
       H  2.54001e+00  6.05284e-01  7.07695e-01
       H  3.44045e+00 -6.73406e-01  3.75492e-01
       H  5.58086e-01 -2.02315e+00 -3.11628e-01
7
# CELL(abcABC):   14.00143    14.00143    14.00143    90.00000    90.00000    90.00000  Step:        5600  Bead:       3 positions{angstrom}  cell{angstrom}
       O  1.06838e+00 -1.46853e+00 -8.91184e-01
       O  2.46907e+00 -3.57704e-01  5.72284e-01
       H  2.21627e-01 -1.11322e+00 -1.12707e+00
       H  1.69975e+00 -8.00965e-01 -2.00757e-01
       H  1.98864e+00  2.18147e-01  1.22066e+00
       H  3.48334e+00 -5.01484e-01  4.24831e-01
       H  1.04045e+00 -2.37341e+00 -8.90151e-01
7
# CELL(abcABC):   14.00143    14.00143    14.00143    90.00000    90.00000    90.00000  Step:        6000  Bead:       3 positions{angstrom}  cell{angstrom}
       O  1.11038e+00 -1.45540e+00 -9.38189e-01
       O  2.39926e+00 -3.44361e-01  6.26104e-01
       H  5.42468e-01 -7.33876e-01 -1.39518e+00
       H  1.88139e+00 -1.14116e+00 -8.73739e-02
       H  2.59229e+00 -7.88583e-01  1.40618e+00
       H  2.66395e+00  5.97405e-01  5.79292e-01
       H  9.59984e-01 -2.51166e+00 -1.23970e+00
7
# CELL(abcABC):   14.00143    14.00143    14.00143    90.00000    90.00000    90.00000  Step:        6400  Bead:       3 positions{angstrom}  cell{angstrom}
       O  1.26477e+00 -1.56326e+00 -9.61389e-01
       O  2.17677e+00 -1.83203e-01  6.40217e-01
       H  1.73759e+00 -2.09686e+00 -1.52047e+00
       H  1.62514e+00 -9.93839e-01 -1.15020e-01
       H  2.53513e+00 -4.57415e-01  1.56344e+00
       H  2.38930e+00  6.96427e-01  3.00117e-01
       H  6.88039e-01 -2.21093e+00 -5.49331e-01
7
# CELL(abcABC):   14.00143    14.00143    14.00143    90.00000    90.00000    90.00000  Step:        6800  Bead:       3 positions{angstrom}  cell{angstrom}
       O  1.58119e+00 -1.95242e+00 -7.46862e-01
       O  1.90605e+00  2.07626e-01  4.50253e-01
       H  1.73821e+00 -2.77610e+00 -2.25960e-01
       H  1.59820e+00 -9.47491e-01 -1.81104e-01
       H  2.00163e+00  3.34030e-01  1.32665e+00
       H  2.16249e+00  8.25835e-01 -1.10387e-01
       H  9.62476e-01 -2.11577e+00 -1.51910e+00
7
# CELL(abcABC):   14.00143    14.00143    14.00143    90.00000    90.00000    90.00000  Step:        7200  Bead:       3 positions{angstrom}  cell{angstrom}
       O  1.61602e+00 -2.12267e+00 -5.14507e-01
       O  1.88305e+00  3.10796e-01  1.26232e-01
       H  1.70262e+00 -2.78987e+00  7.92578e-02
       H  1.74102e+00 -1.01734e+00 -1.79349e-01
       H  1.78826e+00  6.38213e-01  1.12007e+00
       H  2.55223e+00  8.49605e-01 -1.42424e-01
       H  9.38465e-01 -2.14883e+00 -1.25924e+00
7
# CELL(abcABC):   14.00143    14.00143    14.00143    90.00000    90.00000    90.00000  Step:        7600  Bead:       3 positions{angstrom}  cell{angstrom}
       O  1.99942e+00 -2.12162e+00 -2.60906e-01
       O  1.51759e+00  2.41590e-01 -8.07092e-02
       H  2.63072e+00 -2.60158e+00  2.83231e-01
       H  1.73039e+00 -8.39735e-01 -2.00573e-01
       H  1.25814e+00  5.80635e-01  8.85654e-01
       H  2.04846e+00  1.04192e+00 -6.14702e-01
       H  1.19984e+00 -2.63690e+00 -6.62167e-01
7
# CELL(abcABC):   14.00143    14.00143    14.00143    90.00000    90.00000    90.00000  Step:        8000  Bead:       3 positions{angstrom}  cell{angstrom}
       O  2.35835e+00 -2.00469e+00  8.01030e-02
       O  1.14161e+00  1.40028e-01 -3.54534e-01
       H  3.28361e+00 -1.64383e+00  1.06174e-01
       H  1.60542e+00 -1.02416e+00 -1.19830e-01
       H  1.48326e+00  1.01276e+00 -1.36916e-01
       H  3.61917e-01  3.61102e-01 -9.59812e-01
       H  2.05443e+00 -2.98782e+00  1.45331e-01
7
# CELL(abcABC):   14.00143    14.00143    14.00143    90.00000    90.00000    90.00000  Step:        8400  Bead:       3 positions{angstrom}  cell{angstrom}
       O  2.52593e+00 -1.78224e+00  1.59618e-01
       O  9.63689e-01 -2.36216e-02 -4.85124e-01
       H  3.36385e+00 -1.63337e+00  7.25964e-01
       H  1.63180e+00 -8.97276e-01 -1.46634e-01
       H  4.93478e-01 -1.09178e-01 -1.30870e+00
       H  7.78903e-01  7.43826e-01  1.57092e-01
       H  2.73576e+00 -2.55611e+00 -4.96653e-01
7
# CELL(abcABC):   14.00143    14.00143    14.00143    90.00000    90.00000    90.00000  Step:        8800  Bead:       3 positions{angstrom}  cell{angstrom}
       O  2.56060e+00 -1.59272e+00  4.43856e-01
       O  9.85173e-01 -2.21378e-01 -7.24803e-01
       H  2.94788e+00 -1.24619e+00  1.15090e+00
       H  1.66164e+00 -9.33937e-01 -1.10517e-01
       H  5.68376e-02 -5.16706e-01 -8.58417e-01
       H  9.19185e-01  8.75552e-01 -8.22734e-01
       H  2.82791e+00 -2.39124e+00 -1.40363e-01
7
# CELL(abcABC):   14.00143    14.00143    14.00143    90.00000    90.00000    90.00000  Step:        9200  Bead:       3 positions{angstrom}  cell{angstrom}
       O  2.57212e+00 -1.41154e+00  6.39141e-01
       O  9.37561e-01 -4.40480e-01 -9.15209e-01
       H  2.82795e+00 -7.86046e-01  1.41458e+00
       H  1.68718e+00 -7.42633e-01 -1.25543e-01
       H  3.31726e-01 -1.07885e+00 -1.30173e+00
       H  9.49753e-01  4.85647e-01 -1.22703e+00
       H  3.14237e+00 -2.06646e+00  4.37548e-01
7
# CELL(abcABC):   14.00143    14.00143    14.00143    90.00000    90.00000    90.00000  Step:        9600  Bead:       3 positions{angstrom}  cell{angstrom}
       O  2.52711e+00 -1.41505e+00  5.60532e-01
       O  9.58641e-01 -4.19803e-01 -8.55305e-01
       H  3.39763e+00 -1.39089e+00  7.09389e-01
       H  1.93386e+00 -1.04074e+00 -2.38581e-01
       H  9.49724e-02 -1.03795e+00 -1.02151e+00
       H  7.30864e-01  5.10664e-01 -1.06348e+00
       H  1.99895e+00 -2.12305e+00  1.09755e+00
7
# CELL(abcABC):   14.00143    14.00143    14.00143    90.00000    90.00000    90.00000  Step:       10000  Bead:       3 positions{angstrom}  cell{angstrom}
       O  2.50608e+00 -1.59680e+00  5.41944e-01
       O  9.96387e-01 -2.78874e-01 -8.39609e-01
       H  3.40692e+00 -1.93247e+00  2.34787e-01
       H  1.74472e+00 -1.25702e+00 -2.85536e-01
       H  4.02157e-01  2.20738e-01 -3.71176e-01
       H  8.74947e-01 -3.08557e-02 -1.76463e+00
       H  2.26468e+00 -1.43862e+00  1.53940e+00
7
# CELL(abcABC):   14.00143    14.00143    14.00143    90.00000    90.00000    90.00000  Step:       10400  Bead:       3 positions{angstrom}  cell{angstrom}
       O  2.26370e+00 -1.76399e+00  4.51769e-01
       O  1.21940e+00 -6.33282e-02 -8.11359e-01
       H  2.50842e+00 -2.67572e+00  3.81413e-01
       H  1.73046e+00 -1.06617e+00 -1.66046e-01
       H  1.33270e+00  8.28843e-01 -4.00206e-01
       H  9.43643e-01 -2.06385e-01 -1.75693e+00
       H  2.49056e+00 -1.22851e+00  1.24047e+00
7
# CELL(abcABC):   14.00143    14.00143    14.00143    90.00000    90.00000    90.00000  Step:       10800  Bead:       3 positions{angstrom}  cell{angstrom}
       O  2.12325e+00 -1.60056e+00  6.75955e-01
       O  1.35525e+00 -1.68720e-01 -1.04113e+00
       H  1.80077e+00 -2.57922e+00  7.56836e-01
       H  1.92123e+00 -9.58426e-01 -2.80093e-01
       H  4.59706e-01  9.02815e-02 -6.70282e-01
       H  1.69746e+00  4.74480e-01 -1.76274e+00
       H  2.97504e+00 -1.33315e+00  1.06601e+00
7
# CELL(abcABC):   14.00143    14.00143    14.00143    90.00000    90.00000    90.00000  Step:       11200  Bead:       3 positions{angstrom}  cell{angstrom}
       O  2.31203e+00 -1.51876e+00  7.41274e-01
       O  1.20613e+00 -2.89487e-01 -1.08232e+00
       H  1.66266e+00 -1.99438e+00  1.30124e+00
       H  1.90233e+00 -1.03510e+00 -2.34299e-01
       H  2.71303e-01 -5.18210e-01 -1.16064e+00
       H  1.20941e+00  6.50204e-01 -1.36430e+00
       H  3.04412e+00 -1.05047e+00  1.21936e+00
7
# CELL(abcABC):   14.00143    14.00143    14.00143    90.00000    90.00000    90.00000  Step:       11600  Bead:       3 positions{angstrom}  cell{angstrom}
       O  2.17407e+00 -1.51998e+00  7.71018e-01
       O  1.36167e+00 -2.56924e-01 -1.13043e+00
       H  1.58495e+00 -2.02249e+00  1.44198e+00
       H  1.74875e+00 -9.02254e-01 -2.49144e-01
       H  1.46273e+00 -5.43105e-01 -1.95055e+00
       H  3.46706e-01 -3.70115e-01 -1.14890e+00
       H  2.92734e+00 -1.52436e+00  1.20938e+00
7
# CELL(abcABC):   14.00143    14.00143    14.00143    90.00000    90.00000    90.00000  Step:       12000  Bead:       3 positions{angstrom}  cell{angstrom}
       O  2.11284e+00 -1.37838e+00  9.01975e-01
       O  1.41010e+00 -4.65793e-01 -1.23491e+00
       H  1.82535e+00 -1.17673e+00  1.85967e+00
       H  1.68454e+00 -1.02474e+00 -1.44462e-01
       H  2.01755e+00  3.36381e-01 -1.36962e+00
       H  5.75402e-01 -4.82254e-01 -1.60098e+00
       H  2.97759e+00 -1.78403e+00  9.21392e-01
7
# CELL(abcABC):   14.00143    14.00143    14.00143    90.00000    90.00000    90.00000  Step:       12400  Bead:       3 positions{angstrom}  cell{angstrom}
       O  2.17382e+00 -1.24346e+00  9.65426e-01
       O  1.31355e+00 -6.23497e-01 -1.20394e+00
       H  1.85969e+00 -1.02745e+00  1.78517e+00
       H  1.64038e+00 -9.36037e-01 -4.63397e-02
       H  1.73435e+00  1.57971e-01 -1.58204e+00
       H  5.61245e-01 -7.71574e-01 -1.91845e+00
       H  3.12240e+00 -1.38097e+00  7.83607e-01
7
# CELL(abcABC):   14.00143    14.00143    14.00143    90.00000    90.00000    90.00000  Step:       12800  Bead:       3 positions{angstrom}  cell{angstrom}
       O  2.27128e+00 -1.28232e+00  9.14796e-01
       O  1.20768e+00 -6.26873e-01 -1.18785e+00
       H  2.04920e+00 -7.21626e-01  1.73186e+00
       H  1.89407e+00 -9.66020e-01 -1.16129e-01
       H  1.50126e+00  2.47291e-01 -1.51131e+00
       H  4.16973e-01 -9.59682e-01 -1.49171e+00
       H  3.23496e+00 -1.51031e+00  9.27288e-01
7
# CELL(abcABC):   14.00143    14.00143    14.00143    90.00000    90.00000    90.00000  Step:       13200  Bead:       3 positions{angstrom}  cell{angstrom}
       O  2.21720e+00 -1.45216e+00  8.53325e-01
       O  1.27606e+00 -4.14976e-01 -1.20738e+00
       H  1.75404e+00 -1.42772e+00  1.77897e+00
       H  1.78885e+00 -9.39913e-01 -1.37129e-01
       H  1.16431e+00  5.34485e-01 -1.18181e+00
       H  7.82352e-01 -9.56401e-01 -1.84297e+00
       H  3.17497e+00 -1.76799e+00  8.89574e-01
7
# CELL(abcABC):   14.00143    14.00143    14.00143    90.00000    90.00000    90.00000  Step:       13600  Bead:       3 positions{angstrom}  cell{angstrom}
       O  2.18631e+00 -1.41571e+00  8.49041e-01
       O  1.21338e+00 -3.71978e-01 -1.15302e+00
       H  1.99482e+00 -1.23296e+00  1.78729e+00
       H  1.76826e+00 -9.05904e-01 -2.65161e-01
       H  4.10059e-01 -1.14106e-01 -1.23135e+00
       H  1.59592e+00 -9.43686e-01 -1.92760e+00
       H  2.81338e+00 -2.15490e+00  8.23645e-01
7
# CELL(abcABC):   14.00143    14.00143    14.00143    90.00000    90.00000    90.00000  Step:       14000  Bead:       3 positions{angstrom}  cell{angstrom}
       O  2.32126e+00 -1.42440e+00  7.31130e-01
       O  1.13915e+00 -3.22734e-01 -9.62793e-01
       H  1.96673e+00 -2.38663e+00  7.71300e-01
       H  2.00829e+00 -8.36965e-01 -1.43837e-01
       H  2.00533e-01 -6.71549e-01 -7.60387e-01
       H  1.51250e+00 -4.87731e-01 -1.83899e+00
       H  3.25146e+00 -1.78527e+00  6.39844e-01
7
# CELL(abcABC):   14.00143    14.00143    14.00143    90.00000    90.00000    90.00000  Step:       14400  Bead:       3 positions{angstrom}  cell{angstrom}
       O  2.29944e+00 -1.62490e+00  6.28733e-01
       O  1.15719e+00 -1.86592e-01 -8.69842e-01
       H  2.29441e+00 -2.56662e+00  4.60936e-01
       H  1.79711e+00 -9.21230e-01 -8.42888e-02
       H  7.50724e-01 -8.39303e-01 -1.51090e+00
       H  1.43637e+00  5.50048e-01 -1.48678e+00
       H  3.16161e+00 -1.57774e+00  9.32942e-01
7
# CELL(abcABC):   14.00143    14.00143    14.00143    90.00000    90.00000    90.00000  Step:       14800  Bead:       3 positions{angstrom}  cell{angstrom}
       O  2.22622e+00 -1.55344e+00  7.47804e-01
       O  1.29077e+00 -2.24329e-01 -1.03069e+00
       H  1.86636e+00 -1.61852e+00  1.66554e+00
       H  1.41382e+00 -9.95232e-01 -1.01998e-01
       H  7.26951e-01 -5.42150e-01 -1.76971e+00
       H  1.60476e+00  8.04880e-01 -1.12233e+00
       H  2.78654e+00 -2.39276e+00  6.84040e-01
7
# CELL(abcABC):   14.00143    14.00143    14.00143    90.00000    90.00000    90.00000  Step:       15200  Bead:       3 positions{angstrom}  cell{angstrom}
       O  1.96579e+00 -1.77641e+00  6.79358e-01
       O  1.58003e+00 -8.74103e-02 -1.00222e+00
       H  1.44619e+00 -1.63357e+00  1.50508e+00
       H  1.79788e+00 -1.03646e+00 -2.93020e-01
       H  1.92615e+00  7.53665e-02 -1.97575e+00
       H  1.19348e+00  8.61935e-01 -6.32953e-01
       H  2.41425e+00 -2.64632e+00  5.31906e-01
7
# CELL(abcABC):   14.00143    14.00143    14.00143    90.00000    90.00000    90.00000  Step:       15600  Bead:       3 positions{angstrom}  cell{angstrom}
       O  1.97421e+00 -1.77758e+00  5.73350e-01
       O  1.55965e+00 -5.49434e-02 -9.68489e-01
       H  2.10671e+00 -1.62848e+00  1.50980e+00
       H  1.92585e+00 -7.45458e-01 -3.93131e-01
       H  2.16089e+00  7.02808e-01 -1.29157e+00
       H  6.40754e-01  5.37983e-02 -6.59485e-01
       H  1.95270e+00 -2.75266e+00  5.38477e-01
7
# CELL(abcABC):   14.00143    14.00143    14.00143    90.00000    90.00000    90.00000  Step:       16000  Bead:       3 positions{angstrom}  cell{angstrom}
       O  2.30410e+00 -1.64087e+00  5.84576e-01
       O  1.16156e+00 -1.21347e-01 -8.30321e-01
       H  2.71780e+00 -1.71781e+00  1.39666e+00
       H  1.77124e+00 -9.07363e-01 -2.10333e-01
       H  1.58844e+00  7.60053e-01 -8.46228e-01
       H  3.93789e-01 -3.09799e-01 -1.41295e+00
       H  2.33658e+00 -2.62114e+00  1.51848e-01
7
# CELL(abcABC):   14.00143    14.00143    14.00143    90.00000    90.00000    90.00000  Step:       16400  Bead:       3 positions{angstrom}  cell{angstrom}
       O  2.10861e+00 -1.71792e+00  7.20927e-01
       O  1.37885e+00 -8.51413e-02 -9.64143e-01
       H  2.72928e+00 -1.30937e+00  1.30462e+00
       H  1.59959e+00 -7.58545e-01 -2.52767e-01
       H  1.59358e+00  8.45337e-01 -8.51173e-01
       H  1.00498e+00 -4.32798e-01 -1.73520e+00
       H  1.55741e+00 -2.65404e+00  8.79352e-01
7
# CELL(abcABC):   14.00143    14.00143    14.00143    90.00000    90.00000    90.00000  Step:       16800  Bead:       3 positions{angstrom}  cell{angstrom}
       O  1.92279e+00 -1.69551e+00  8.06147e-01
       O  1.60430e+00 -1.07741e-01 -1.03582e+00
       H  2.90305e+00 -1.58893e+00  9.15347e-01
       H  1.72898e+00 -8.00723e-01 -4.51893e-02
       H  1.95447e+00  8.61557e-01 -8.38416e-01
       H  1.74287e+00 -1.87613e-01 -2.13105e+00
       H  1.39629e+00 -2.49532e+00  8.22796e-01
7
# CELL(abcABC):   14.00143    14.00143    14.00143    90.00000    90.00000    90.00000  Step:       17200  Bead:       3 positions{angstrom}  cell{angstrom}
       O  2.00246e+00 -1.66642e+00  7.69104e-01
       O  1.42649e+00 -1.78816e-01 -1.08258e+00
       H  1.91808e+00 -1.14302e+00  1.61950e+00
       H  1.47279e+00 -1.03010e+00 -1.95735e-01
       H  1.78364e+00  7.99776e-01 -8.73423e-01
       H  1.60982e+00 -5.17838e-01 -1.90784e+00
       H  2.89368e+00 -2.06460e+00  7.52509e-01
7
# CELL(abcABC):   14.00143    14.00143    14.00143    90.00000    90.00000    90.00000  Step:       17600  Bead:       3 positions{angstrom}  cell{angstrom}
       O  2.10633e+00 -1.59093e+00  8.23426e-01
       O  1.36624e+00 -2.76005e-01 -1.09682e+00
       H  2.17329e+00 -1.06367e+00  1.58292e+00
       H  1.54713e+00 -8.51213e-01 -1.49954e-03
       H  1.21946e+00  6.66256e-01 -1.19448e+00
       H  1.62720e+00 -8.84758e-01 -1.98894e+00
       H  2.94425e+00 -2.26256e+00  7.97160e-01
7
# CELL(abcABC):   14.00143    14.00143    14.00143    90.00000    90.00000    90.00000  Step:       18000  Bead:       3 positions{angstrom}  cell{angstrom}
       O  2.50117e+00 -1.55832e+00  6.53944e-01
       O  1.05281e+00 -2.58061e-01 -1.01098e+00
       H  2.33131e+00 -1.56467e+00  1.68743e+00
       H  1.80341e+00 -9.08407e-01 -8.57111e-02
       H  1.85446e-01 -1.68654e-01 -5.31731e-01
       H  1.45099e+00  3.17514e-01 -1.67757e+00
       H  3.19433e+00 -2.02627e+00  3.66038e-01
7
# CELL(abcABC):   14.00143    14.00143    14.00143    90.00000    90.00000    90.00000  Step:       18400  Bead:       3 positions{angstrom}  cell{angstrom}
       O  2.46078e+00 -1.33574e+00  7.21944e-01
       O  9.97801e-01 -4.94140e-01 -1.02036e+00
       H  2.40251e+00 -2.01590e+00  1.38197e+00
       H  1.61576e+00 -8.81911e-01 -1.97328e-01
       H  5.30535e-01  3.54298e-01 -6.27511e-01
       H  1.08255e+00 -3.34157e-01 -1.89163e+00
       H  3.42714e+00 -8.64538e-01  6.55130e-01
7
# CELL(abcABC):   14.00143    14.00143    14.00143    90.00000    90.00000    90.00000  Step:       18800  Bead:       3 positions{angstrom}  cell{angstrom}
       O  2.55404e+00 -1.18969e+00  6.49422e-01
       O  9.03727e-01 -6.44210e-01 -9.26684e-01
       H  2.96404e+00 -1.98897e+00  9.87350e-01
       H  1.74503e+00 -1.00362e+00 -3.04077e-01
       H  2.51022e-01  1.48196e-02 -5.45108e-01
       H  8.05254e-01 -8.54749e-01 -1.80796e+00
       H  2.78914e+00 -3.45594e-01  1.14142e+00
7
# CELL(abcABC):   14.00143    14.00143    14.00143    90.00000    90.00000    90.00000  Step:       19200  Bead:       3 positions{angstrom}  cell{angstrom}
       O  2.40990e+00 -1.45026e+00  7.40842e-01
       O  1.02696e+00 -3.74275e-01 -1.03394e+00
       H  3.38317e+00 -1.50289e+00  6.99833e-01
       H  1.46845e+00 -8.20978e-01 -2.19139e-01
       H  4.38300e-01  5.05230e-01 -9.23803e-01
       H  1.14588e+00 -1.06725e+00 -1.78838e+00
       H  2.20571e+00 -1.61305e+00  1.61939e+00
7
# CELL(abcABC):   14.00143    14.00143    14.00143    90.00000    90.00000    90.00000  Step:       19600  Bead:       3 positions{angstrom}  cell{angstrom}
       O  2.10349e+00 -1.64442e+00  7.87023e-01
       O  1.42468e+00 -1.66549e-01 -1.05616e+00
       H  2.35041e+00 -1.35119e+00  1.76359e+00
       H  1.76326e+00 -9.04501e-01 -6.05608e-02
       H  5.75985e-01  1.18707e-01 -1.39569e+00
       H  1.96319e+00  2.35200e-01 -1.80882e+00
       H  2.11891e+00 -2.54513e+00  5.16819e-01
7
# CELL(abcABC):   14.00143    14.00143    14.00143    90.00000    90.00000    90.00000  Step:       20000  Bead:       3 positions{angstrom}  cell{angstrom}
       O  2.02910e+00 -1.78374e+00  6.02912e-01
       O  1.45123e+00  1.88749e-02 -9.23637e-01
       H  2.56933e+00 -1.81609e+00  1.63460e+00
       H  1.91842e+00 -8.02495e-01 -2.09005e-02
       H  1.22177e+00 -5.34945e-01 -1.70610e+00
       H  9.68952e-01  7.06403e-01 -5.24616e-01
       H  2.47588e+00 -2.46584e+00  1.62669e-02
7
# CELL(abcABC):   14.00143    14.00143    14.00143    90.00000    90.00000    90.00000  Step:       20400  Bead:       3 positions{angstrom}  cell{angstrom}
       O  2.08103e+00 -1.91903e+00  3.80734e-01
       O  1.40918e+00  9.48861e-02 -7.13396e-01
       H  2.92798e+00 -1.82641e+00  8.73902e-01
       H  1.71631e+00 -9.36193e-01 -1.22121e-01
       H  1.98505e+00  4.72403e-01 -1.32559e+00
       H  5.45471e-01  3.66818e-01 -1.14229e+00
       H  1.34338e+00 -2.31605e+00  8.45405e-01
7
# CELL(abcABC):   14.00143    14.00143    14.00143    90.00000    90.00000    90.00000  Step:       20800  Bead:       3 positions{angstrom}  cell{angstrom}
       O  2.19433e+00 -1.90523e+00  3.18097e-01
       O  1.29641e+00  9.03336e-02 -5.90518e-01
       H  3.26342e+00 -2.02748e+00  1.95966e-01
       H  1.54708e+00 -8.60194e-01 -1.74183e-01
       H  1.79595e+00  1.05157e+00 -7.54416e-01
       H  3.37375e-01  1.54228e-01 -1.04074e+00
       H  1.65668e+00 -2.37447e+00  8.97010e-01
7
# CELL(abcABC):   14.00143    14.00143    14.00143    90.00000    90.00000    90.00000  Step:       21200  Bead:       3 positions{angstrom}  cell{angstrom}
       O  2.13869e+00 -1.92566e+00  2.98721e-01
       O  1.32672e+00  1.48867e-01 -6.36346e-01
       H  2.98892e+00 -2.26915e+00  8.29726e-01
       H  1.85480e+00 -1.07084e+00 -2.43951e-01
       H  1.48509e+00  9.46502e-01 -1.12616e-01
       H  8.63074e-01  2.63113e-01 -1.51103e+00
       H  1.54929e+00 -2.89220e+00  3.19298e-01
7
# CELL(abcABC):   14.00143    14.00143    14.00143    90.00000    90.00000    90.00000  Step:       21600  Bead:       3 positions{angstrom}  cell{angstrom}
       O  2.11768e+00 -1.86988e+00  3.60210e-01
       O  1.42661e+00  8.21287e-02 -6.64276e-01
       H  1.90317e+00 -2.02127e+00  1.26670e+00
       H  2.08006e+00 -7.90478e-01 -2.47883e-01
       H  1.03126e+00  7.84852e-01 -3.65463e-02
       H  1.33580e+00  3.27860e-01 -1.57238e+00
       H  2.35828e+00 -2.69886e+00 -1.98053e-01
7
# CELL(abcABC):   14.00143    14.00143    14.00143    90.00000    90.00000    90.00000  Step:       22000  Bead:       3 positions{angstrom}  cell{angstrom}
       O  2.00021e+00 -1.87859e+00  5.09333e-01
       O  1.55192e+00  8.75463e-02 -8.14787e-01
       H  1.26770e+00 -2.55423e+00  9.66103e-01
       H  1.76645e+00 -8.02449e-01 -3.46026e-01
       H  8.36539e-01  7.86704e-01 -4.86936e-01
       H  2.32303e+00  5.19825e-01 -1.15488e+00
       H  2.73200e+00 -2.47715e+00  4.19924e-01
7
# CELL(abcABC):   14.00143    14.00143    14.00143    90.00000    90.00000    90.00000  Step:       22400  Bead:       3 positions{angstrom}  cell{angstrom}
       O  1.83221e+00 -2.07588e+00  2.41491e-01
       O  1.63690e+00  2.49828e-01 -5.80064e-01
       H  1.47097e+00 -2.88212e+00 -7.21140e-02
       H  1.68155e+00 -7.69283e-01 -7.29033e-03
       H  9.74284e-01  9.28887e-01 -3.35078e-01
       H  2.45859e+00  7.25257e-01 -7.87252e-01
       H  1.95659e+00 -2.30671e+00  1.17602e+00
7
# CELL(abcABC):   14.00143    14.00143    14.00143    90.00000    90.00000    90.00000  Step:       22800  Bead:       3 positions{angstrom}  cell{angstrom}
       O  2.02833e+00 -2.10268e+00 -6.94454e-02
       O  1.50199e+00  2.12957e-01 -2.48646e-01
       H  2.04204e+00 -2.49775e+00 -9.63140e-01
       H  1.65498e+00 -8.58257e-01 -1.08570e-01
       H  1.91575e+00  7.42051e-01  5.32606e-01
       H  1.24735e+00  9.37378e-01 -9.47286e-01
       H  1.61646e+00 -2.63542e+00  5.19576e-01
7
# CELL(abcABC):   14.00143    14.00143    14.00143    90.00000    90.00000    90.00000  Step:       23200  Bead:       3 positions{angstrom}  cell{angstrom}
       O  2.26576e+00 -2.07957e+00 -7.80130e-02
       O  1.27586e+00  2.18575e-01 -1.98389e-01
       H  3.03976e+00 -2.50689e+00 -9.76648e-02
       H  1.64769e+00 -7.57188e-01 -3.06448e-01
       H  1.47739e+00  1.07697e+00  4.07264e-01
       H  5.20935e-01  4.10239e-01 -8.85492e-01
       H  1.59844e+00 -2.77469e+00  5.64502e-02
7
# CELL(abcABC):   14.00143    14.00143    14.00143    90.00000    90.00000    90.00000  Step:       23600  Bead:       3 positions{angstrom}  cell{angstrom}
       O  2.32061e+00 -1.90927e+00  1.82122e-01
       O  1.17578e+00  7.28177e-02 -4.48345e-01
       H  3.17642e+00 -2.20897e+00 -2.03907e-01
       H  1.83711e+00 -8.47574e-01 -1.85149e-01
       H  5.34206e-01  2.91049e-01  1.12856e-01
       H  1.48212e+00  6.08017e-01 -1.25522e+00
       H  2.30902e+00 -2.25825e+00  1.13976e+00
7
# CELL(abcABC):   14.00143    14.00143    14.00143    90.00000    90.00000    90.00000  Step:       24000  Bead:       3 positions{angstrom}  cell{angstrom}
       O  2.32304e+00 -1.79409e+00  3.78359e-01
       O  1.18390e+00  7.85084e-03 -6.75065e-01