7
# CELL(abcABC):   14.00143    14.00143    14.00143    90.00000    90.00000    90.00000  Step:           0  Bead:       1 positions{angstrom}  cell{angstrom}
       O  5.72211e-01 -8.20992e-01 -3.40858e-01
       O  2.93099e+00 -1.00086e+00  3.45000e-02
       H  1.15544e-01 -1.32891e+00 -1.03000e+00
       H  1.75146e+00 -9.10942e-01 -1.52650e-01
       H  3.30479e+00 -1.55124e+00  7.40818e-01
       H  3.58125e+00 -5.33487e-01 -5.13365e-01
       H  5.91684e-03 -2.31237e-01  1.81684e-01
7
# CELL(abcABC):   14.00143    14.00143    14.00143    90.00000    90.00000    90.00000  Step:         400  Bead:       1 positions{angstrom}  cell{angstrom}
       O  5.75227e-01 -9.20429e-01 -9.39573e-02
       O  2.92936e+00 -8.71296e-01 -2.49925e-01
       H  2.74805e-01 -1.41848e+00 -8.01328e-01
       H  1.75770e+00 -8.82034e-01 -4.25370e-02
       H  3.55301e+00 -7.07545e-01  3.88571e-01
       H  3.48701e+00 -1.38016e+00 -8.44529e-01
       H  1.41521e-02 -2.02059e-01  3.04526e-01
7
# CELL(abcABC):   14.00143    14.00143    14.00143    90.00000    90.00000    90.00000  Step:         800  Bead:       1 positions{angstrom}  cell{angstrom}
       O  6.13824e-01 -1.17782e+00  1.34937e-01
       O  2.88408e+00 -6.76496e-01 -4.22419e-01
       H -2.04847e-02 -1.18536e+00 -6.60355e-01
       H  1.73315e+00 -9.39722e-01  5.89890e-02
       H  3.30596e+00  2.58260e-01 -5.27064e-01
       H  3.51034e+00 -1.38880e+00 -5.17616e-01
       H  2.63292e-01 -1.36575e+00  1.05553e+00
7
# CELL(abcABC):   14.00143    14.00143    14.00143    90.00000    90.00000    90.00000  Step:        1200  Bead:       1 positions{angstrom}  cell{angstrom}
       O  5.69927e-01 -1.20291e+00 -1.48946e-02
       O  2.90940e+00 -5.44862e-01 -3.14864e-01
       H  2.24524e-01 -1.66044e+00 -7.86020e-01
       H  1.73736e+00 -8.25344e-01 -1.37586e-01
       H  3.17468e+00  2.43868e-01 -7.51299e-01
       H  3.43513e+00 -1.34141e+00 -1.46970e-01
       H -7.38010e-02 -9.69181e-01  6.50220e-01
7
# CELL(abcABC):   14.00143    14.00143    14.00143    90.00000    90.00000    90.00000  Step:        1600  Bead:       1 positions{angstrom}  cell{angstrom}
       O  6.40782e-01 -1.52251e+00 -1.77745e-01
       O  2.88809e+00 -3.74281e-01 -5.12379e-02
       H  2.22903e-01 -1.72426e+00 -9.71501e-01
       H  1.93131e+00 -8.23918e-01 -1.31596e-01
       H  2.74235e+00  4.94684e-01 -4.54577e-01
       H  3.63058e+00 -9.02148e-01 -3.51810e-01
       H -2.07496e-01 -1.31916e+00  5.12197e-01
7
# CELL(abcABC):   14.00143    14.00143    14.00143    90.00000    90.00000    90.00000  Step:        2000  Bead:       1 positions{angstrom}  cell{angstrom}
       O  7.27650e-01 -1.45330e+00 -5.82131e-01
       O  2.74586e+00 -3.78116e-01  3.04942e-01
       H  7.62598e-01 -2.11218e+00 -1.35300e+00
       H  1.74403e+00 -9.35551e-01 -2.75999e-01
       H  2.86516e+00 -6.32127e-02  1.19819e+00
       H  3.59501e+00 -2.33622e-01 -2.21981e-01
       H  1.77049e-02 -1.65716e+00  1.42119e-01
7
# CELL(abcABC):   14.00143    14.00143    14.00143    90.00000    90.00000    90.00000  Step:        2400  Bead:       1 positions{angstrom}  cell{angstrom}
       O  8.57352e-01 -1.13859e+00 -8.44138e-01
       O  2.69436e+00 -6.36116e-01  4.75110e-01
       H  7.87512e-01 -1.93268e+00 -1.36790e+00
       H  1.74905e+00 -9.24640e-01 -3.52489e-01
       H  2.43431e+00 -5.56018e-01  1.48693e+00
       H  3.36265e+00 -1.34606e+00  4.93075e-01
       H  4.07906e-02 -7.73479e-01 -5.61699e-01
7
# CELL(abcABC):   14.00143    14.00143    14.00143    90.00000    90.00000    90.00000  Step:        2800  Bead:       1 positions{angstrom}  cell{angstrom}
       O  8.77430e-01 -8.40627e-01 -9.18902e-01
       O  2.66754e+00 -9.78838e-01  5.70159e-01
       H  4.00781e-01 -1.05167e+00 -1.74978e+00
       H  1.77777e+00 -9.78803e-01 -4.19191e-01
       H  3.52278e+00 -5.42735e-01  5.52738e-01
       H  2.44005e+00 -1.10016e+00  1.52633e+00
       H  1.47434e-01 -7.73014e-01 -3.37048e-01
7
# CELL(abcABC):   14.00143    14.00143    14.00143    90.00000    90.00000    90.00000  Step:        3200  Bead:       1 positions{angstrom}  cell{angstrom}
       O  9.15840e-01 -8.82653e-01 -9.88281e-01
       O  2.67641e+00 -8.81589e-01  7.10376e-01
       H  9.54079e-01 -7.20067e-01 -1.96723e+00
       H  1.91033e+00 -1.23992e+00 -6.64309e-02
       H  2.45952e+00 -1.50626e+00  1.59452e+00
       H  3.12166e+00  3.47289e-03  7.94258e-01
       H  6.56970e-02 -6.54853e-01 -6.42039e-01
7
# CELL(abcABC):   14.00143    14.00143    14.00143    90.00000    90.00000    90.00000  Step:        3600  Bead:       1 positions{angstrom}  cell{angstrom}
       O  7.84900e-01 -1.12649e+00 -8.93935e-01
       O  2.72485e+00 -6.66499e-01  6.42318e-01
       H  6.22407e-01 -4.82830e-01 -1.58333e+00
       H  1.84252e+00 -9.29208e-01  4.99553e-02
       H  3.25351e+00 -1.10239e+00  1.29639e+00
       H  3.09566e+00  1.56154e-01  4.62309e-01
       H  2.71162e-01 -2.04245e+00 -7.72675e-01
7
# CELL(abcABC):   14.00143    14.00143    14.00143    90.00000    90.00000    90.00000  Step:        4000  Bead:       1 positions{angstrom}  cell{angstrom}
       O  9.44756e-01 -1.60511e+00 -8.64660e-01
       O  2.51295e+00 -2.31668e-01  5.53192e-01
       H  7.69468e-01 -5.99741e-01 -1.22412e+00
       H  1.63659e+00 -1.04279e+00 -1.01590e-01
       H  2.55631e+00 -3.53931e-01  1.54873e+00
       H  2.87864e+00  6.76029e-01  3.13117e-01
       H  9.19098e-01 -2.55413e+00 -1.30675e+00
7
# CELL(abcABC):   14.00143    14.00143    14.00143    90.00000    90.00000    90.00000  Step:        4400  Bead:       1 positions{angstrom}  cell{angstrom}
       O  1.33226e+00 -1.86932e+00 -8.70870e-01
       O  2.18676e+00  1.25364e-02  5.11958e-01
       H  1.13649e+00 -1.52438e+00 -1.80398e+00
       H  1.74628e+00 -9.76286e-01 -1.20357e-01
       H  2.49621e+00 -2.43130e-01  1.37218e+00
       H  2.28396e+00  9.42738e-01  6.43827e-02
       H  7.90800e-01 -2.37106e+00 -2.60496e-01
7
# CELL(abcABC):   14.00143    14.00143    14.00143    90.00000    90.00000    90.00000  Step:        4800  Bead:       1 positions{angstrom}  cell{angstrom}
       O  1.25009e+00 -1.72710e+00 -9.56338e-01
       O  2.28356e+00 -4.98750e-03  5.81045e-01
       H  9.68604e-01 -1.31244e+00 -1.88488e+00
       H  1.61650e+00 -1.11957e+00 -2.37563e-01
       H  3.20183e+00  3.93785e-01  2.65486e-01
       H  2.39683e+00 -6.37313e-01  1.46506e+00
       H  5.69254e-01 -2.39417e+00 -5.30654e-01
7
# CELL(abcABC):   14.00143    14.00143    14.00143    90.00000    90.00000    90.00000  Step:        5200  Bead:       1 positions{angstrom}  cell{angstrom}
       O  1.04611e+00 -1.59779e+00 -9.15377e-01
       O  2.49860e+00 -2.15029e-01  5.93229e-01
       H  5.46385e-01 -1.44758e+00 -1.69982e+00
       H  1.43356e+00 -6.99469e-01 -3.22592e-01
       H  2.75857e+00  7.65183e-01  7.07887e-01
       H  3.16327e+00 -8.61731e-01  2.75728e-01
       H  4.59104e-01 -2.14778e+00 -2.87868e-01
7
# CELL(abcABC):   14.00143    14.00143    14.00143    90.00000    90.00000    90.00000  Step:        5600  Bead:       1 positions{angstrom}  cell{angstrom}
       O  1.07568e+00 -1.45801e+00 -8.69542e-01
       O  2.40365e+00 -3.40795e-01  5.11551e-01
       H  2.53082e-01 -1.24951e+00 -1.17048e+00
       H  1.72281e+00 -9.20223e-01 -1.92831e-01
       H  2.20967e+00  3.69894e-01  1.27830e+00
       H  3.23014e+00 -3.97637e-01  1.35380e-01
       H  1.26938e+00 -2.41284e+00 -9.17855e-01
7
# CELL(abcABC):   14.00143    14.00143    14.00143    90.00000    90.00000    90.00000  Step:        6000  Bead:       1 positions{angstrom}  cell{angstrom}
       O  1.03914e+00 -1.48493e+00 -9.06977e-01
       O  2.36249e+00 -3.53856e-01  6.54027e-01
       H  4.02005e-01 -8.23258e-01 -1.07148e+00
       H  1.83252e+00 -1.13119e+00 -2.76828e-01
       H  2.86702e+00 -9.43908e-01  1.26077e+00
       H  2.71388e+00  6.30275e-01  5.71723e-01
       H  1.08495e+00 -2.42341e+00 -1.36977e+00
7
# CELL(abcABC):   14.00143    14.00143    14.00143    90.00000    90.00000    90.00000  Step:        6400  Bead:       1 positions{angstrom}  cell{angstrom}
       O  1.28892e+00 -1.66831e+00 -9.37261e-01
       O  2.15303e+00 -1.52755e-01  6.57800e-01
       H  1.70503e+00 -1.91119e+00 -1.80253e+00
       H  1.69986e+00 -8.85191e-01 -1.53349e-01
       H  2.73118e+00 -7.29488e-01  1.36259e+00
       H  2.28366e+00  8.23393e-01  4.30502e-01
       H  6.94224e-01 -2.44234e+00 -5.76212e-01
7
# CELL(abcABC):   14.00143    14.00143    14.00143    90.00000    90.00000    90.00000  Step:        6800  Bead:       1 positions{angstrom}  cell{angstrom}
       O  1.64355e+00 -1.98215e+00 -7.07117e-01
       O  1.85868e+00  1.59593e-01  3.99359e-01
       H  2.02389e+00 -2.76238e+00 -3.35285e-01
       H  1.67543e+00 -1.05630e+00 -2.09222e-01
       H  2.15133e+00  3.74943e-01  1.36295e+00
       H  2.30597e+00  1.00623e+00 -5.37677e-02
       H  1.01104e+00 -2.12318e+00 -1.47877e+00
7
# CELL(abcABC):   14.00143    14.00143    14.00143    90.00000    90.00000    90.00000  Step:        7200  Bead:       1 positions{angstrom}  cell{angstrom}
       O  1.66101e+00 -2.07233e+00 -4.60575e-01
       O  1.90412e+00  3.26987e-01  1.39236e-01
       H  1.59970e+00 -2.80264e+00  1.35998e-01
       H  1.67546e+00 -1.02679e+00 -3.21531e-01
       H  1.77204e+00  8.09704e-01  9.32432e-01
       H  2.58842e+00  7.17571e-01 -3.24472e-01
       H  1.04306e+00 -2.15588e+00 -1.08649e+00
7
# CELL(abcABC):   14.00143    14.00143    14.00143    90.00000    90.00000    90.00000  Step:        7600  Bead:       1 positions{angstrom}  cell{angstrom}
       O  1.95230e+00 -2.08941e+00 -1.93163e-01
       O  1.56712e+00  3.24070e-01 -1.53251e-01
       H  2.24141e+00 -2.72835e+00  4.73135e-01
       H  1.71333e+00 -7.25497e-01 -9.21037e-02
       H  1.22398e+00  8.48408e-01  6.02842e-01
       H  2.14032e+00  8.58393e-01 -5.86057e-01
       H  1.20939e+00 -2.46884e+00 -7.93471e-01
7
# CELL(abcABC):   14.00143    14.00143    14.00143    90.00000    90.00000    90.00000  Step:        8000  Bead:       1 positions{angstrom}  cell{angstrom}
       O  2.28620e+00 -1.97271e+00  8.15944e-02
       O  1.17081e+00  1.58699e-01 -4.67202e-01
       H  3.20421e+00 -1.68941e+00  1.98038e-01
       H  1.74507e+00 -1.02046e+00 -5.07571e-02
       H  1.50439e+00  9.57071e-01 -2.41902e-01
       H  2.70378e-01  1.51654e-01 -9.47627e-01
       H  1.94209e+00 -2.80452e+00  1.56268e-01
7
# CELL(abcABC):   14.00143    14.00143    14.00143    90.00000    90.00000    90.00000  Step:        8400  Bead:       1 positions{angstrom}  cell{angstrom}
       O  2.45795e+00 -1.82096e+00  1.84144e-01
       O  9.87283e-01 -2.58936e-02 -4.94960e-01
       H  3.29435e+00 -1.68094e+00  7.64632e-01
       H  1.88041e+00 -1.16504e+00 -1.64125e-01
       H  2.30275e-01 -1.05571e-01 -1.32185e+00
       H  7.85912e-01  7.93564e-01  2.17769e-01
       H  2.72079e+00 -2.50305e+00 -4.83043e-01
7
# CELL(abcABC):   14.00143    14.00143    14.00143    90.00000    90.00000    90.00000  Step:        8800  Bead:       1 positions{angstrom}  cell{angstrom}
       O  2.52379e+00 -1.62420e+00  4.10596e-01
       O  1.00214e+00 -2.46208e-01 -7.04196e-01
       H  3.18523e+00 -1.21232e+00  1.13883e+00
       H  1.76139e+00 -9.71809e-01 -2.17010e-01
       H  2.25057e-02 -5.06105e-01 -6.52622e-01
       H  1.12857e+00  7.21220e-01 -7.26513e-01
       H  2.87485e+00 -2.32988e+00 -2.81565e-02
7
# CELL(abcABC):   14.00143    14.00143    14.00143    90.00000    90.00000    90.00000  Step:        9200  Bead:       1 positions{angstrom}  cell{angstrom}
       O  2.54668e+00 -1.41913e+00  6.17041e-01
       O  9.37353e-01 -4.10211e-01 -9.50205e-01
       H  2.93303e+00 -1.00909e+00  1.42813e+00
       H  1.70297e+00 -6.79666e-01 -2.94954e-01
       H  4.00934e-01 -1.05151e+00 -1.34349e+00
       H  8.42488e-01  5.41762e-01 -1.14829e+00
       H  2.91402e+00 -2.21954e+00  5.23153e-01
7
# CELL(abcABC):   14.00143    14.00143    14.00143    90.00000    90.00000    90.00000  Step:        9600  Bead:       1 positions{angstrom}  cell{angstrom}
       O  2.56259e+00 -1.42252e+00  5.87358e-01
       O  9.61751e-01 -3.85707e-01 -8.68326e-01
       H  3.54213e+00 -1.31914e+00  7.93384e-01
       H  2.08299e+00 -9.27819e-01 -3.87171e-01
       H  1.13441e-01 -1.10079e+00 -9.51273e-01
       H  7.91485e-01  5.43807e-01 -1.05872e+00
       H  1.89801e+00 -1.94083e+00  1.32785e+00
7
# CELL(abcABC):   14.00143    14.00143    14.00143    90.00000    90.00000    90.00000  Step:       10000  Bead:       1 positions{angstrom}  cell{angstrom}
       O  2.54058e+00 -1.53275e+00  5.52184e-01
       O  9.69978e-01 -2.42288e-01 -8.15769e-01
       H  3.41218e+00 -1.80319e+00  4.45849e-01
       H  1.77029e+00 -8.17578e-01 -3.57013e-01
       H  3.58155e-01  5.71879e-02 -1.24360e-01
       H  1.15274e+00  8.73668e-02 -1.68125e+00
       H  2.24518e+00 -1.31475e+00  1.45493e+00
7
# CELL(abcABC):   14.00143    14.00143    14.00143    90.00000    90.00000    90.00000  Step:       10400  Bead:       1 positions{angstrom}  cell{angstrom}
       O  2.29071e+00 -1.74975e+00  5.06016e-01
       O  1.21910e+00 -2.92574e-02 -7.69755e-01
       H  2.65663e+00 -2.64888e+00  2.72251e-01
       H  1.81401e+00 -9.28695e-01 -2.36393e-01
       H  1.35198e+00  8.65598e-01 -2.25215e-01
       H  8.38167e-01 -1.40394e-01 -1.75543e+00
       H  2.26813e+00 -1.45656e+00  1.47241e+00
7
# CELL(abcABC):   14.00143    14.00143    14.00143    90.00000    90.00000    90.00000  Step:       10800  Bead:       1 positions{angstrom}  cell{angstrom}
       O  2.10916e+00 -1.64407e+00  6.77846e-01
       O  1.34043e+00 -2.10034e-01 -9.74841e-01
       H  1.73290e+00 -2.59619e+00  5.84393e-01
       H  1.93627e+00 -8.35626e-01 -1.82343e-01
       H  5.08445e-01  1.79922e-01 -4.56232e-01
       H  1.63647e+00  3.48133e-01 -1.82279e+00
       H  2.91953e+00 -1.67724e+00  1.24071e+00
7
# CELL(abcABC):   14.00143    14.00143    14.00143    90.00000    90.00000    90.00000  Step:       11200  Bead:       1 positions{angstrom}  cell{angstrom}
       O  2.26865e+00 -1.58604e+00  7.35491e-01
       O  1.20967e+00 -2.75973e-01 -1.03807e+00
       H  1.55100e+00 -2.14457e+00  8.99912e-01
       H  1.88057e+00 -1.06541e+00 -2.01488e-01
       H  2.76642e-01 -6.94865e-01 -1.18292e+00
       H  1.57607e+00  4.98155e-01 -1.47102e+00
       H  2.96707e+00 -1.34920e+00  1.50537e+00
7
# CELL(abcABC):   14.00143    14.00143    14.00143    90.00000    90.00000    90.00000  Step:       11600  Bead:       1 positions{angstrom}  cell{angstrom}
       O  2.17881e+00 -1.52242e+00  8.18074e-01
       O  1.39337e+00 -2.84463e-01 -1.14704e+00
       H  1.36812e+00 -1.94954e+00  1.25781e+00
       H  1.74620e+00 -8.45995e-01 -2.48480e-01
       H  1.53919e+00 -4.02318e-01 -2.15099e+00
       H  2.81305e-01  7.74155e-02 -1.18885e+00
       H  3.09843e+00 -1.52059e+00  1.28924e+00
7
# CELL(abcABC):   14.00143    14.00143    14.00143    90.00000    90.00000    90.00000  Step:       12000  Bead:       1 positions{angstrom}  cell{angstrom}
       O  2.07490e+00 -1.37355e+00  8.73002e-01
       O  1.42508e+00 -5.04863e-01 -1.23540e+00
       H  1.85786e+00 -1.15086e+00  1.84669e+00
       H  1.81843e+00 -6.67253e-01 -2.09122e-02
       H  1.89259e+00  3.19548e-01 -1.50494e+00
       H  4.57257e-01 -5.75972e-01 -1.42334e+00
       H  3.01402e+00 -1.74594e+00  8.20546e-01
7
# CELL(abcABC):   14.00143    14.00143    14.00143    90.00000    90.00000    90.00000  Step:       12400  Bead:       1 positions{angstrom}  cell{angstrom}
       O  2.15573e+00 -1.24917e+00  9.74319e-01
       O  1.37096e+00 -5.84891e-01 -1.25933e+00
       H  1.85285e+00 -9.71145e-01  1.82259e+00
       H  1.58292e+00 -1.01518e+00 -1.94340e-02
       H  1.83834e+00  6.18733e-02 -1.68580e+00
       H  5.08388e-01 -9.69926e-01 -1.59594e+00
       H  3.09921e+00 -1.39682e+00  1.16973e+00
7
# CELL(abcABC):   14.00143    14.00143    14.00143    90.00000    90.00000    90.00000  Step:       12800  Bead:       1 positions{angstrom}  cell{angstrom}
       O  2.25266e+00 -1.19401e+00  8.87185e-01
       O  1.18827e+00 -5.83832e-01 -1.17045e+00
       H  1.87172e+00 -9.11518e-01  1.70623e+00
       H  1.95633e+00 -7.94471e-01 -1.72909e-01
       H  1.63313e+00  9.84038e-02 -1.78532e+00
       H  4.56836e-01 -1.16992e+00 -1.48397e+00
       H  3.11483e+00 -1.36562e+00  1.06871e+00
7
# CELL(abcABC):   14.00143    14.00143    14.00143    90.00000    90.00000    90.00000  Step:       13200  Bead:       1 positions{angstrom}  cell{angstrom}
       O  2.21400e+00 -1.42499e+00  8.60552e-01
       O  1.24450e+00 -3.68005e-01 -1.14039e+00
       H  1.67489e+00 -1.56573e+00  1.75040e+00
       H  1.84198e+00 -9.12358e-01 -1.31741e-01
       H  1.29471e+00  6.18481e-01 -1.33581e+00
       H  7.27388e-01 -1.06610e+00 -1.78807e+00
       H  3.11481e+00 -1.42578e+00  1.10317e+00
7
# CELL(abcABC):   14.00143    14.00143    14.00143    90.00000    90.00000    90.00000  Step:       13600  Bead:       1 positions{angstrom}  cell{angstrom}
       O  2.25385e+00 -1.43955e+00  8.79139e-01
       O  1.28287e+00 -3.31255e-01 -1.07569e+00
       H  2.05757e+00 -1.14678e+00  1.72714e+00
       H  1.66881e+00 -8.63226e-01 -1.79483e-01
       H  3.35176e-01  1.49121e-01 -1.02736e+00
       H  1.39883e+00 -8.46846e-01 -1.83975e+00
       H  3.02353e+00 -2.16534e+00  7.60167e-01
7
# CELL(abcABC):   14.00143    14.00143    14.00143    90.00000    90.00000    90.00000  Step:       14000  Bead:       1 positions{angstrom}  cell{angstrom}
       O  2.31909e+00 -1.40908e+00  7.37560e-01
       O  1.19162e+00 -3.09102e-01 -9.87289e-01
       H  1.66892e+00 -2.01323e+00  1.10123e+00
       H  1.72683e+00 -8.40357e-01 -4.94953e-02
       H  2.66369e-01 -6.32732e-01 -9.92590e-01
       H  1.49553e+00 -4.17392e-01 -1.89366e+00
       H  3.16245e+00 -1.77369e+00  7.53331e-01
7
# CELL(abcABC):   14.00143    14.00143    14.00143    90.00000    90.00000    90.00000  Step:       14400  Bead:       1 positions{angstrom}  cell{angstrom}
       O  2.32230e+00 -1.65027e+00  6.31276e-01
       O  1.16156e+00 -1.42629e-01 -8.94633e-01
       H  2.16874e+00 -2.57992e+00  7.23952e-01
       H  1.68240e+00 -9.60020e-01 -1.80095e-01
       H  6.54429e-01 -8.83058e-01 -1.53650e+00
       H  1.45019e+00  5.07012e-01 -1.50299e+00
       H  3.19542e+00 -1.42965e+00  7.25804e-01
7
# CELL(abcABC):   14.00143    14.00143    14.00143    90.00000    90.00000    90.00000  Step:       14800  Bead:       1 positions{angstrom}  cell{angstrom}
       O  2.23395e+00 -1.57030e+00  8.02139e-01
       O  1.31599e+00 -2.34097e-01 -1.08459e+00
       H  2.11649e+00 -1.59630e+00  1.73367e+00
       H  1.54729e+00 -9.13734e-01  5.72563e-02
       H  6.74923e-01 -4.74737e-01 -1.83459e+00
       H  1.74345e+00  6.39639e-01 -1.22251e+00
       H  2.39532e+00 -2.59566e+00  4.38918e-01
7
# CELL(abcABC):   14.00143    14.00143    14.00143    90.00000    90.00000    90.00000  Step:       15200  Bead:       1 positions{angstrom}  cell{angstrom}
       O  2.03419e+00 -1.78642e+00  7.80690e-01
       O  1.45158e+00 -7.34583e-02 -1.04556e+00
       H  1.58166e+00 -1.68174e+00  1.63284e+00
       H  1.82412e+00 -8.44199e-01 -4.07745e-01
       H  1.88527e+00 -8.49763e-02 -1.98053e+00
       H  1.68261e+00  8.86702e-01 -7.71207e-01
       H  2.45658e+00 -2.52511e+00  4.56626e-01
7
# CELL(abcABC):   14.00143    14.00143    14.00143    90.00000    90.00000    90.00000  Step:       15600  Bead:       1 positions{angstrom}  cell{angstrom}
       O  2.04654e+00 -1.80535e+00  5.30595e-01
       O  1.43374e+00 -9.35976e-02 -8.83206e-01
       H  2.09061e+00 -1.73602e+00  1.51783e+00
       H  1.78193e+00 -9.22135e-01 -2.63383e-01
       H  2.17360e+00  4.58224e-01 -1.16307e+00
       H  5.09653e-01  3.22780e-01 -7.91951e-01
       H  2.06938e+00 -2.80929e+00  4.43403e-01
7
# CELL(abcABC):   14.00143    14.00143    14.00143    90.00000    90.00000    90.00000  Step:       16000  Bead:       1 positions{angstrom}  cell{angstrom}
       O  2.33123e+00 -1.73903e+00  5.30228e-01
       O  1.16437e+00 -1.45496e-01 -8.42620e-01
       H  2.68441e+00 -1.76251e+00  1.49784e+00
       H  1.71866e+00 -1.01606e+00 -8.51707e-02
       H  1.63658e+00  7.63087e-01 -8.30673e-01
       H  4.64812e-01 -3.47399e-01 -1.45468e+00
       H  2.33777e+00 -2.73567e+00  1.44361e-01
7
# CELL(abcABC):   14.00143    14.00143    14.00143    90.00000    90.00000    90.00000  Step:       16400  Bead:       1 positions{angstrom}  cell{angstrom}
       O  2.10106e+00 -1.75951e+00  6.76670e-01
       O  1.40939e+00 -2.43488e-02 -9.87358e-01
       H  2.72172e+00 -1.61283e+00  1.50719e+00
       H  1.82348e+00 -8.22061e-01 -4.19043e-01
       H  1.85554e+00  8.87910e-01 -8.26749e-01
       H  9.94756e-01 -1.73732e-01 -1.84559e+00
       H  1.70607e+00 -2.57927e+00  7.88785e-01
7
# CELL(abcABC):   14.00143    14.00143    14.00143    90.00000    90.00000    90.00000  Step:       16800  Bead:       1 positions{angstrom}  cell{angstrom}
       O  1.87235e+00 -1.65702e+00  7.87748e-01
       O  1.57852e+00 -7.82257e-02 -1.05928e+00
       H  2.78185e+00 -1.62333e+00  9.67590e-01
       H  1.81588e+00 -9.23828e-01 -2.47340e-01
       H  2.18516e+00  6.65689e-01 -8.54052e-01
       H  1.48448e+00 -2.41497e-01 -2.04699e+00
       H  1.57155e+00 -2.46160e+00  6.62574e-01
7
# CELL(abcABC):   14.00143    14.00143    14.00143    90.00000    90.00000    90.00000  Step:       17200  Bead:       1 positions{angstrom}  cell{angstrom}
       O  2.04383e+00 -1.59291e+00  7.61155e-01
       O  1.43600e+00 -2.27284e-01 -1.07789e+00
       H  1.68166e+00 -1.31919e+00  1.63390e+00
       H  1.56686e+00 -1.17642e+00 -1.72477e-01
       H  1.77305e+00  6.88762e-01 -7.42525e-01
       H  1.36069e+00 -5.30813e-01 -2.00974e+00
       H  2.75451e+00 -2.23697e+00  6.93192e-01
7
# CELL(abcABC):   14.00143    14.00143    14.00143    90.00000    90.00000    90.00000  Step:       17600  Bead:       1 positions{angstrom}  cell{angstrom}
       O  2.12492e+00 -1.58652e+00  8.28652e-01
       O  1.36540e+00 -2.84637e-01 -1.08990e+00
       H  2.09101e+00 -1.15477e+00  1.61233e+00
       H  1.55792e+00 -9.60528e-01 -1.30350e-01
       H  1.24437e+00  7.21615e-01 -1.22662e+00
       H  1.84543e+00 -6.60594e-01 -1.82137e+00
       H  2.93570e+00 -2.19217e+00  1.00973e+00
7
# CELL(abcABC):   14.00143    14.00143    14.00143    90.00000    90.00000    90.00000  Step:       18000  Bead:       1 positions{angstrom}  cell{angstrom}
       O  2.47917e+00 -1.52607e+00  6.42539e-01
       O  1.03277e+00 -3.04711e-01 -9.17958e-01
       H  2.18369e+00 -1.38296e+00  1.47620e+00
       H  1.81405e+00 -1.05278e+00 -1.54783e-01
       H  1.66613e-01 -2.71716e-02 -5.29312e-01
       H  1.42933e+00  3.82832e-01 -1.68373e+00
       H  3.28075e+00 -1.99517e+00  4.82778e-01
7
# CELL(abcABC):   14.00143    14.00143    14.00143    90.00000    90.00000    90.00000  Step:       18400  Bead:       1 positions{angstrom}  cell{angstrom}
       O  2.52981e+00 -1.34721e+00  6.63462e-01
       O  9.38791e-01 -5.20178e-01 -1.00228e+00
       H  2.61185e+00 -2.14103e+00  1.20553e+00
       H  1.53800e+00 -1.05418e+00 -1.32026e-01
       H  6.11180e-01  3.14570e-01 -8.05580e-01
       H  8.48144e-01 -6.81895e-01 -1.92027e+00
       H  3.26891e+00 -6.47963e-01  5.80874e-01
7
# CELL(abcABC):   14.00143    14.00143    14.00143    90.00000    90.00000    90.00000  Step:       18800  Bead:       1 positions{angstrom}  cell{angstrom}
       O  2.52139e+00 -1.16871e+00  6.50269e-01
       O  9.30856e-01 -6.66302e-01 -9.78002e-01
       H  2.82455e+00 -2.14548e+00  8.80396e-01
       H  1.77070e+00 -1.02512e+00 -1.81520e-01
       H  4.59801e-01  1.15189e-01 -8.52263e-01
       H  1.09747e+00 -9.94264e-01 -1.91064e+00
       H  2.90009e+00 -5.77858e-01  1.35912e+00
7
# CELL(abcABC):   14.00143    14.00143    14.00143    90.00000    90.00000    90.00000  Step:       19200  Bead:       1 positions{angstrom}  cell{angstrom}
       O  2.42405e+00 -1.41733e+00  6.96530e-01
       O  1.09066e+00 -4.20865e-01 -9.95412e-01
       H  3.42776e+00 -1.49896e+00  6.29870e-01
       H  1.86368e+00 -6.99287e-01  2.44615e-02
       H  6.55713e-01  5.25625e-01 -1.13423e+00
       H  1.18604e+00 -1.01307e+00 -1.77987e+00
       H  2.16778e+00 -1.70648e+00  1.55578e+00
7
# CELL(abcABC):   14.00143    14.00143    14.00143    90.00000    90.00000    90.00000  Step:       19600  Bead:       1 positions{angstrom}  cell{angstrom}
       O  2.12416e+00 -1.65454e+00  7.85490e-01
       O  1.40605e+00 -1.86080e-01 -1.09650e+00
       H  2.19260e+00 -1.66289e+00  1.76047e+00
       H  1.94536e+00 -8.54384e-01  3.43726e-02
       H  5.65172e-01  1.50237e-01 -1.25552e+00
       H  2.02623e+00  1.15879e-01 -1.76723e+00
       H  2.37432e+00 -2.46240e+00  4.49376e-01
7
# CELL(abcABC):   14.00143    14.00143    14.00143    90.00000    90.00000    90.00000  Step:       20000  Bead:       1 positions{angstrom}  cell{angstrom}
       O  2.03322e+00 -1.76240e+00  5.81306e-01
       O  1.46868e+00  4.76546e-02 -8.61279e-01
       H  2.38812e+00 -1.79664e+00  1.43063e+00
       H  1.77760e+00 -7.06402e-01 -2.32863e-01
       H  1.04768e+00 -4.36839e-01 -1.65786e+00
       H  9.35042e-01  7.69263e-01 -5.73292e-01
       H  2.56736e+00 -2.42337e+00  1.44664e-01
7
# CELL(abcABC):   14.00143    14.00143    14.00143    90.00000    90.00000    90.00000  Step:       20400  Bead:       1 positions{angstrom}  cell{angstrom}
       O  2.09753e+00 -1.92205e+00  3.45950e-01
       O  1.42943e+00  1.11113e-01 -6.09638e-01
       H  2.89291e+00 -1.91671e+00  9.46068e-01
       H  1.62033e+00 -9.58843e-01 -9.82443e-02
       H  2.24439e+00  2.90024e-01 -1.15731e+00
       H  5.63646e-01  4.69913e-01 -1.04948e+00
       H  1.42678e+00 -2.50492e+00  7.88868e-01
7
# CELL(abcABC):   14.00143    14.00143    14.00143    90.00000    90.00000    90.00000  Step:       20800  Bead:       1 positions{angstrom}  cell{angstrom}
       O  2.24254e+00 -1.91071e+00  2.89291e-01
       O  1.27181e+00  7.46547e-02 -6.03969e-01
       H  3.23057e+00 -2.17826e+00  2.94218e-01
       H  1.61660e+00 -8.28650e-01 -1.73006e-01
       H  1.74000e+00  8.02160e-01 -8.30205e-01
       H  5.19937e-01 -2.26950e-02 -1.18451e+00
       H  1.67778e+00 -2.44238e+00  9.41709e-01
7
# CELL(abcABC):   14.00143    14.00143    14.00143    90.00000    90.00000    90.00000  Step:       21200  Bead:       1 positions{angstrom}  cell{angstrom}
       O  2.24123e+00 -1.92213e+00  2.54444e-01
       O  1.33057e+00  9.17383e-02 -6.99691e-01
       H  2.97930e+00 -2.09069e+00  8.07490e-01
       H  1.68213e+00 -7.91037e-01 -2.18575e-01
       H  1.53156e+00  8.17177e-01  1.06197e-01
       H  7.60635e-01  2.39885e-01 -1.47329e+00
       H  1.61197e+00 -2.67740e+00  4.74094e-01
7
# CELL(abcABC):   14.00143    14.00143    14.00143    90.00000    90.00000    90.00000  Step:       21600  Bead:       1 positions{angstrom}  cell{angstrom}
       O  2.18174e+00 -1.87591e+00  3.75050e-01
       O  1.44336e+00  1.21776e-01 -6.71098e-01
       H  1.77238e+00 -2.03208e+00  1.16373e+00
       H  1.92197e+00 -8.89102e-01 -2.85417e-01
       H  8.91346e-01  8.21151e-01 -2.05902e-01
       H  1.06894e+00  1.71330e-01 -1.66989e+00
       H  2.47733e+00 -2.71771e+00 -8.71170e-02
7
# CELL(abcABC):   14.00143    14.00143    14.00143    90.00000    90.00000    90.00000  Step:       22000  Bead:       1 positions{angstrom}  cell{angstrom}
       O  1.99701e+00 -1.92641e+00  4.89740e-01
       O  1.52822e+00  1.25087e-01 -7.83667e-01
       H  1.29909e+00 -2.52889e+00  8.59247e-01
       H  1.83035e+00 -8.73452e-01 -9.20605e-02
       H  9.59550e-01  8.13752e-01 -5.06861e-01
       H  2.17892e+00  4.47205e-01 -1.36184e+00
       H  2.89522e+00 -2.51026e+00  3.05254e-01
7
# CELL(abcABC):   14.00143    14.00143    14.00143    90.00000    90.00000    90.00000  Step:       22400  Bead:       1 positions{angstrom}  cell{angstrom}
       O  1.84526e+00 -2.03964e+00  2.64011e-01
       O  1.66329e+00  2.53887e-01 -5.69589e-01
       H  1.68794e+00 -2.86858e+00 -9.61634e-02
       H  1.80226e+00 -9.44432e-01  1.42203e-02
       H  9.39065e-01  9.97383e-01 -5.73554e-01
       H  2.40747e+00  6.24309e-01 -1.01462e+00
       H  2.14320e+00 -2.35864e+00  1.12553e+00
7
# CELL(abcABC):   14.00143    14.00143    14.00143    90.00000    90.00000    90.00000  Step:       22800  Bead:       1 positions{angstrom}  cell{angstrom}
       O  1.97820e+00 -2.03684e+00 -4.74326e-02
       O  1.48929e+00  2.60361e-01 -2.51433e-01
       H  2.47637e+00 -2.24292e+00 -9.05994e-01
       H  1.56310e+00 -7.11646e-01 -1.32216e-01
       H  1.92962e+00  7.61753e-01  5.11942e-01
       H  1.22016e+00  8.45850e-01 -1.07204e+00
       H  1.74689e+00 -2.55072e+00  7.78201e-01
7
# CELL(abcABC):   14.00143    14.00143    14.00143    90.00000    90.00000    90.00000  Step:       23200  Bead:       1 positions{angstrom}  cell{angstrom}
       O  2.22657e+00 -2.00622e+00 -9.69566e-02
       O  1.26649e+00  2.62702e-01 -2.71282e-01
       H  3.07355e+00 -2.34558e+00 -5.74587e-02
       H  1.63839e+00 -1.02854e+00 -1.06289e-01
       H  1.46454e+00  9.49532e-01  3.68737e-01
       H  6.34012e-01  3.57325e-01 -8.97599e-01
       H  1.55656e+00 -2.74704e+00 -5.03120e-02
7
# CELL(abcABC):   14.00143    14.00143    14.00143    90.00000    90.00000    90.00000  Step:       23600  Bead:       1 positions{angstrom}  cell{angstrom}
       O  2.29131e+00 -1.96352e+00  1.66491e-01
       O  1.19118e+00  1.10959e-01 -5.29287e-01
       H  3.20478e+00 -2.23367e+00 -2.40607e-01
       H  1.88635e+00 -9.81649e-01 -1.94122e-01
       H  3.74998e-01  4.12153e-01 -4.31988e-02
       H  1.48547e+00  7.97265e-01 -1.26054e+00
       H  2.16258e+00 -2.27422e+00  1.22069e+00
7
# CELL(abcABC):   14.00143    14.00143    14.00143    90.00000    90.00000    90.00000  Step:       24000  Bead:       1 positions{angstrom}  cell{angstrom}
       O  2.31644e+00 -1.88930e+00  3.27641e-01
       O  1.17900e+00 -1.18501e-02 -6.74160e-01