7
# CELL(abcABC):   14.00143    14.00143    14.00143    90.00000    90.00000    90.00000  Step:           0  Bead:       5 positions{angstrom}  cell{angstrom}
       O  5.72211e-01 -8.20992e-01 -3.40858e-01
       O  2.93099e+00 -1.00086e+00  3.45000e-02
       H  1.15544e-01 -1.32891e+00 -1.03000e+00
       H  1.75146e+00 -9.10942e-01 -1.52650e-01
       H  3.30479e+00 -1.55124e+00  7.40818e-01
       H  3.58125e+00 -5.33487e-01 -5.13365e-01
       H  5.91684e-03 -2.31237e-01  1.81684e-01
7
# CELL(abcABC):   14.00143    14.00143    14.00143    90.00000    90.00000    90.00000  Step:         400  Bead:       5 positions{angstrom}  cell{angstrom}
       O  5.90505e-01 -9.00848e-01 -1.06936e-01
       O  2.95799e+00 -9.42017e-01 -1.83337e-01
       H  2.80747e-01 -1.45976e+00 -8.62240e-01
       H  1.78743e+00 -9.71417e-01 -5.40820e-02
       H  3.63230e+00 -7.79573e-01  5.67961e-01
       H  3.23067e+00 -1.50446e+00 -9.31653e-01
       H -1.42808e-01 -2.25094e-01  1.58715e-01
7
# CELL(abcABC):   14.00143    14.00143    14.00143    90.00000    90.00000    90.00000  Step:         800  Bead:       5 positions{angstrom}  cell{angstrom}
       O  5.77697e-01 -1.13472e+00  1.27959e-01
       O  2.90890e+00 -6.44225e-01 -4.78070e-01
       H  1.51092e-02 -1.42401e+00 -5.45789e-01
       H  1.88640e+00 -9.20944e-01  6.89647e-02
       H  3.23475e+00  2.53498e-01 -6.38415e-01
       H  3.50442e+00 -1.52818e+00 -6.78726e-01
       H  5.46549e-02 -1.33859e+00  8.98248e-01
7
# CELL(abcABC):   14.00143    14.00143    14.00143    90.00000    90.00000    90.00000  Step:        1200  Bead:       5 positions{angstrom}  cell{angstrom}
       O  5.70114e-01 -1.28022e+00  1.06619e-01
       O  2.89390e+00 -5.49027e-01 -3.86031e-01
       H  1.57273e-01 -1.67048e+00 -5.93300e-01
       H  1.75868e+00 -7.95893e-01 -1.38188e-01
       H  3.31701e+00  1.57475e-01 -9.45141e-01
       H  3.59445e+00 -1.11057e+00 -2.06361e-01
       H -1.06131e-01 -1.16290e+00  8.30125e-01
7
# CELL(abcABC):   14.00143    14.00143    14.00143    90.00000    90.00000    90.00000  Step:        1600  Bead:       5 positions{angstrom}  cell{angstrom}
       O  6.74221e-01 -1.43912e+00 -1.79302e-01
       O  2.82367e+00 -3.67927e-01 -9.81576e-02
       H  1.66901e-01 -1.64956e+00 -1.06432e+00
       H  1.85483e+00 -9.07167e-01 -6.25306e-02
       H  2.81132e+00  4.41724e-01 -4.22133e-01
       H  3.65560e+00 -7.32014e-01 -5.38628e-01
       H  4.85388e-02 -1.38672e+00  5.94266e-01
7
# CELL(abcABC):   14.00143    14.00143    14.00143    90.00000    90.00000    90.00000  Step:        2000  Bead:       5 positions{angstrom}  cell{angstrom}
       O  7.59921e-01 -1.34780e+00 -6.86320e-01
       O  2.77173e+00 -4.29358e-01  3.18143e-01
       H  7.17646e-01 -2.05376e+00 -1.33349e+00
       H  1.69183e+00 -1.07137e+00 -1.70831e-01
       H  2.64990e+00 -3.49602e-01  1.26794e+00
       H  3.66383e+00 -3.67070e-04 -5.92286e-02
       H -9.14466e-03 -1.33429e+00 -1.58952e-01
7
# CELL(abcABC):   14.00143    14.00143    14.00143    90.00000    90.00000    90.00000  Step:        2400  Bead:       5 positions{angstrom}  cell{angstrom}
       O  8.02093e-01 -1.17592e+00 -8.22360e-01
       O  2.75859e+00 -6.86964e-01  5.36136e-01
       H  8.06120e-01 -1.90868e+00 -1.34818e+00
       H  1.79111e+00 -6.90354e-01 -4.88237e-02
       H  2.46914e+00 -3.70523e-01  1.30144e+00
       H  3.44548e+00 -1.25048e+00  6.80358e-01
       H -9.44550e-02 -6.90607e-01 -6.84177e-01
7
# CELL(abcABC):   14.00143    14.00143    14.00143    90.00000    90.00000    90.00000  Step:        2800  Bead:       5 positions{angstrom}  cell{angstrom}
       O  8.55351e-01 -8.97756e-01 -9.01500e-01
       O  2.70346e+00 -9.36513e-01  5.88588e-01
       H  8.39764e-01 -1.02886e+00 -1.85090e+00
       H  1.67092e+00 -9.18129e-01 -1.35164e-01
       H  3.65612e+00 -8.11940e-01  6.33532e-01
       H  2.37273e+00 -9.24339e-01  1.47717e+00
       H  1.28793e-01 -7.73718e-01 -2.81847e-01
7
# CELL(abcABC):   14.00143    14.00143    14.00143    90.00000    90.00000    90.00000  Step:        3200  Bead:       5 positions{angstrom}  cell{angstrom}
       O  9.15763e-01 -9.77294e-01 -1.01134e+00
       O  2.61776e+00 -9.12911e-01  7.04210e-01
       H  1.18451e+00 -6.23075e-01 -1.95358e+00
       H  1.82771e+00 -1.25710e+00  1.74176e-02
       H  2.50285e+00 -1.38670e+00  1.54256e+00
       H  2.97218e+00  2.40649e-03  8.02198e-01
       H -5.82644e-02 -8.89440e-01 -7.10950e-01
7
# CELL(abcABC):   14.00143    14.00143    14.00143    90.00000    90.00000    90.00000  Step:        3600  Bead:       5 positions{angstrom}  cell{angstrom}
       O  7.45493e-01 -1.07282e+00 -8.70764e-01
       O  2.73763e+00 -6.65095e-01  5.72722e-01
       H  6.24140e-01 -5.50456e-01 -1.68280e+00
       H  1.75573e+00 -1.01479e+00  4.80442e-03
       H  3.10430e+00 -1.27277e+00  1.18292e+00
       H  2.95143e+00  2.31599e-01  3.08073e-01
       H  1.15132e-01 -1.93646e+00 -9.47732e-01
7
# CELL(abcABC):   14.00143    14.00143    14.00143    90.00000    90.00000    90.00000  Step:        4000  Bead:       5 positions{angstrom}  cell{angstrom}
       O  8.85421e-01 -1.55985e+00 -8.11965e-01
       O  2.61739e+00 -1.99509e-01  5.01464e-01
       H  6.22817e-01 -9.59327e-01 -1.53402e+00
       H  1.74538e+00 -9.93114e-01 -1.18925e-01
       H  2.53493e+00 -2.16230e-01  1.43646e+00
       H  2.82117e+00  7.75013e-01  1.42159e-01
       H  9.77494e-01 -2.41833e+00 -1.11191e+00
7
# CELL(abcABC):   14.00143    14.00143    14.00143    90.00000    90.00000    90.00000  Step:        4400  Bead:       5 positions{angstrom}  cell{angstrom}
       O  1.26031e+00 -1.77196e+00 -8.22546e-01
       O  2.20887e+00  2.88199e-03  5.40057e-01
       H  1.14108e+00 -1.56692e+00 -1.85484e+00
       H  1.59989e+00 -8.05624e-01  3.50312e-02
       H  2.82152e+00  1.06410e-01  1.27109e+00
       H  2.13177e+00  9.45848e-01  1.08259e-01
       H  1.01124e+00 -2.73303e+00 -6.31751e-01
7
# CELL(abcABC):   14.00143    14.00143    14.00143    90.00000    90.00000    90.00000  Step:        4800  Bead:       5 positions{angstrom}  cell{angstrom}
       O  1.21429e+00 -1.70679e+00 -9.30401e-01
       O  2.24421e+00 -1.26552e-01  6.14987e-01
       H  9.63385e-01 -1.42308e+00 -1.73837e+00
       H  1.69633e+00 -1.05124e+00 -4.26270e-02
       H  2.79382e+00  6.51955e-01  3.78993e-01
       H  2.34353e+00 -4.92129e-01  1.51758e+00
       H  6.90705e-01 -2.39162e+00 -6.30800e-01
7
# CELL(abcABC):   14.00143    14.00143    14.00143    90.00000    90.00000    90.00000  Step:        5200  Bead:       5 positions{angstrom}  cell{angstrom}
       O  1.05234e+00 -1.63561e+00 -9.20759e-01
       O  2.42113e+00 -2.69981e-01  5.71696e-01
       H  3.25595e-01 -1.30438e+00 -1.58940e+00
       H  1.77029e+00 -6.00551e-01 -2.00977e-01
       H  2.48908e+00  7.05631e-01  9.38859e-01
       H  3.23285e+00 -6.03799e-01  5.46216e-01
       H  7.94184e-01 -2.34217e+00 -2.11557e-01
7
# CELL(abcABC):   14.00143    14.00143    14.00143    90.00000    90.00000    90.00000  Step:        5600  Bead:       5 positions{angstrom}  cell{angstrom}
       O  1.02589e+00 -1.48279e+00 -9.33289e-01
       O  2.48683e+00 -3.51274e-01  6.10335e-01
       H  7.67614e-02 -1.26542e+00 -1.25625e+00
       H  1.83990e+00 -9.18813e-01 -1.02016e-01
       H  2.05094e+00  3.60350e-01  1.02542e+00
       H  3.51260e+00 -2.46590e-01  4.89795e-01
       H  1.24005e+00 -2.44067e+00 -9.19456e-01
7
# CELL(abcABC):   14.00143    14.00143    14.00143    90.00000    90.00000    90.00000  Step:        6000  Bead:       5 positions{angstrom}  cell{angstrom}
       O  1.09108e+00 -1.46584e+00 -9.44791e-01
       O  2.42590e+00 -3.73450e-01  5.94517e-01
       H  3.96927e-01 -8.34671e-01 -1.33171e+00
       H  1.83469e+00 -9.97296e-01 -1.45628e-01
       H  2.68161e+00 -7.32143e-01  1.51359e+00
       H  2.76934e+00  5.72142e-01  5.19735e-01
       H  1.24292e+00 -2.35775e+00 -1.34851e+00
7
# CELL(abcABC):   14.00143    14.00143    14.00143    90.00000    90.00000    90.00000  Step:        6400  Bead:       5 positions{angstrom}  cell{angstrom}
       O  1.29283e+00 -1.63347e+00 -9.49588e-01
       O  2.25268e+00 -1.59501e-01  5.59764e-01
       H  1.69283e+00 -1.77299e+00 -1.87246e+00
       H  1.79318e+00 -8.92298e-01 -1.06490e-01
       H  2.53231e+00 -6.24031e-01  1.43416e+00
       H  2.43261e+00  6.84619e-01  4.51139e-01
       H  7.58353e-01 -2.32020e+00 -4.53659e-01
7
# CELL(abcABC):   14.00143    14.00143    14.00143    90.00000    90.00000    90.00000  Step:        6800  Bead:       5 positions{angstrom}  cell{angstrom}
       O  1.59543e+00 -1.97428e+00 -7.62222e-01
       O  1.91510e+00  1.43304e-01  4.22593e-01
       H  1.83592e+00 -2.83050e+00 -3.07017e-01
       H  1.76711e+00 -1.15765e+00 -1.29338e-01
       H  1.97920e+00  2.83324e-01  1.28656e+00
       H  1.98614e+00  9.45743e-01  6.10624e-02
       H  9.77286e-01 -1.97447e+00 -1.44897e+00
7
# CELL(abcABC):   14.00143    14.00143    14.00143    90.00000    90.00000    90.00000  Step:        7200  Bead:       5 positions{angstrom}  cell{angstrom}
       O  1.66852e+00 -2.19245e+00 -5.13746e-01
       O  1.81355e+00  2.65099e-01  2.09107e-01
       H  1.83911e+00 -2.99484e+00  5.42826e-02
       H  1.81153e+00 -9.46074e-01 -2.68563e-01
       H  1.56657e+00  8.05898e-01  1.04240e+00
       H  2.32057e+00  1.07829e+00 -2.96651e-01
       H  7.93743e-01 -2.17865e+00 -1.01125e+00
7
# CELL(abcABC):   14.00143    14.00143    14.00143    90.00000    90.00000    90.00000  Step:        7600  Bead:       5 positions{angstrom}  cell{angstrom}
       O  1.97011e+00 -2.14386e+00 -2.22909e-01
       O  1.52860e+00  2.57865e-01 -8.32876e-02
       H  2.33568e+00 -2.68368e+00  4.69044e-01
       H  1.72652e+00 -7.94810e-01 -1.97626e-01
       H  1.28337e+00  6.51839e-01  7.77065e-01
       H  1.86448e+00  9.14758e-01 -5.64036e-01
       H  1.20199e+00 -2.51618e+00 -7.16970e-01
7
# CELL(abcABC):   14.00143    14.00143    14.00143    90.00000    90.00000    90.00000  Step:        8000  Bead:       5 positions{angstrom}  cell{angstrom}
       O  2.27828e+00 -1.94465e+00  1.28165e-01
       O  1.19581e+00  1.36872e-01 -3.27375e-01
       H  3.25272e+00 -1.81819e+00  3.58595e-01
       H  1.97439e+00 -8.82798e-01 -2.20533e-01
       H  1.49576e+00  1.01895e+00  2.24340e-02
       H  3.95306e-01  6.95551e-02 -8.94959e-01
       H  1.93607e+00 -2.73394e+00 -1.27773e-01
7
# CELL(abcABC):   14.00143    14.00143    14.00143    90.00000    90.00000    90.00000  Step:        8400  Bead:       5 positions{angstrom}  cell{angstrom}
       O  2.48665e+00 -1.84659e+00  2.10162e-01
       O  1.02406e+00  5.29848e-02 -4.89177e-01
       H  3.20631e+00 -1.76524e+00  8.63277e-01
       H  1.76942e+00 -8.04627e-01 -1.17496e-01
       H  3.35534e-01 -1.42212e-01 -1.14351e+00
       H  8.44870e-01  7.83192e-01  1.26881e-01
       H  2.60669e+00 -2.60378e+00 -4.65402e-01
7
# CELL(abcABC):   14.00143    14.00143    14.00143    90.00000    90.00000    90.00000  Step:        8800  Bead:       5 positions{angstrom}  cell{angstrom}
       O  2.58636e+00 -1.65411e+00  3.87471e-01
       O  9.55638e-01 -1.89166e-01 -7.56329e-01
       H  2.93861e+00 -1.31477e+00  1.31074e+00
       H  1.64489e+00 -8.33605e-01 -2.24255e-02
       H -9.35053e-02 -4.11435e-01 -8.65623e-01
       H  8.74257e-01  8.58183e-01 -8.97172e-01
       H  2.93447e+00 -2.55051e+00 -1.75477e-01
7
# CELL(abcABC):   14.00143    14.00143    14.00143    90.00000    90.00000    90.00000  Step:        9200  Bead:       5 positions{angstrom}  cell{angstrom}
       O  2.55488e+00 -1.40089e+00  5.65280e-01
       O  9.47436e-01 -4.61136e-01 -8.91128e-01
       H  2.98540e+00 -1.00923e+00  1.33239e+00
       H  1.85726e+00 -9.19491e-01 -4.62864e-01
       H  3.82992e-01 -1.14848e+00 -1.22376e+00
       H  8.48532e-01  4.16202e-01 -1.14631e+00
       H  3.26469e+00 -1.99371e+00  4.81472e-01
7
# CELL(abcABC):   14.00143    14.00143    14.00143    90.00000    90.00000    90.00000  Step:        9600  Bead:       5 positions{angstrom}  cell{angstrom}
       O  2.59336e+00 -1.37260e+00  5.47318e-01
       O  9.80211e-01 -4.39627e-01 -9.67723e-01
       H  3.61432e+00 -1.29810e+00  8.60213e-01
       H  1.81119e+00 -8.71169e-01 -3.42686e-01
       H  3.17953e-01 -1.12535e+00 -1.22899e+00
       H  7.75624e-01  5.14728e-01 -1.04611e+00
       H  1.99017e+00 -2.05128e+00  1.10745e+00
7
# CELL(abcABC):   14.00143    14.00143    14.00143    90.00000    90.00000    90.00000  Step:       10000  Bead:       5 positions{angstrom}  cell{angstrom}
       O  2.52120e+00 -1.58946e+00  4.71366e-01
       O  9.57710e-01 -3.41163e-01 -8.57082e-01
       H  3.52313e+00 -1.69711e+00  2.86738e-01
       H  1.86952e+00 -1.10064e+00 -3.74256e-01
       H  3.86635e-01  3.83293e-01 -2.80348e-01
       H  1.10332e+00 -1.55949e-01 -1.85707e+00
       H  2.11661e+00 -1.43902e+00  1.36167e+00
7
# CELL(abcABC):   14.00143    14.00143    14.00143    90.00000    90.00000    90.00000  Step:       10400  Bead:       5 positions{angstrom}  cell{angstrom}
       O  2.27200e+00 -1.77889e+00  4.57150e-01
       O  1.16934e+00 -8.09885e-02 -7.82479e-01
       H  2.78356e+00 -2.60156e+00  3.14410e-01
       H  1.83918e+00 -1.07608e+00 -2.79590e-01
       H  1.22365e+00  9.70637e-01 -4.64023e-01
       H  8.68541e-01 -2.53234e-01 -1.68364e+00
       H  2.30333e+00 -1.39739e+00  1.30417e+00
7
# CELL(abcABC):   14.00143    14.00143    14.00143    90.00000    90.00000    90.00000  Step:       10800  Bead:       5 positions{angstrom}  cell{angstrom}
       O  2.14584e+00 -1.60326e+00  7.00231e-01
       O  1.37762e+00 -1.78885e-01 -9.95612e-01
       H  1.65540e+00 -2.38899e+00  5.97726e-01
       H  1.89672e+00 -8.18867e-01 -2.43431e-01
       H  4.95528e-01  9.01482e-02 -6.15016e-01
       H  1.75708e+00  3.88563e-01 -1.78481e+00
       H  2.76841e+00 -1.50790e+00  1.41259e+00
7
# CELL(abcABC):   14.00143    14.00143    14.00143    90.00000    90.00000    90.00000  Step:       11200  Bead:       5 positions{angstrom}  cell{angstrom}
       O  2.28659e+00 -1.54348e+00  7.56532e-01
       O  1.27760e+00 -2.35003e-01 -1.04057e+00
       H  1.56402e+00 -1.95147e+00  1.27217e+00
       H  1.94870e+00 -8.83603e-01 -1.68209e-01
       H  4.29312e-01 -5.57051e-01 -1.29150e+00
       H  1.50329e+00  5.86203e-01 -1.50391e+00
       H  2.96418e+00 -1.02302e+00  1.23971e+00
7
# CELL(abcABC):   14.00143    14.00143    14.00143    90.00000    90.00000    90.00000  Step:       11600  Bead:       5 positions{angstrom}  cell{angstrom}
       O  2.12724e+00 -1.51475e+00  8.27317e-01
       O  1.39796e+00 -3.01467e-01 -1.11672e+00
       H  1.41828e+00 -1.82558e+00  1.36690e+00
       H  1.74479e+00 -7.57989e-01 -9.65826e-02
       H  1.60791e+00 -6.99470e-01 -1.91768e+00
       H  5.01945e-01 -5.40156e-02 -1.09280e+00
       H  3.03201e+00 -1.53562e+00  1.26093e+00
7
# CELL(abcABC):   14.00143    14.00143    14.00143    90.00000    90.00000    90.00000  Step:       12000  Bead:       5 positions{angstrom}  cell{angstrom}
       O  2.08993e+00 -1.37649e+00  9.10400e-01
       O  1.38207e+00 -4.62836e-01 -1.21073e+00
       H  2.12264e+00 -1.16925e+00  1.89619e+00
       H  1.63250e+00 -8.57197e-01 -2.94272e-01
       H  2.05525e+00  1.64357e-01 -1.52518e+00
       H  5.20787e-01 -4.90113e-01 -1.70136e+00
       H  2.81248e+00 -1.96140e+00  9.34032e-01
7
# CELL(abcABC):   14.00143    14.00143    14.00143    90.00000    90.00000    90.00000  Step:       12400  Bead:       5 positions{angstrom}  cell{angstrom}
       O  2.17760e+00 -1.24259e+00  9.42096e-01
       O  1.28176e+00 -5.81052e-01 -1.24797e+00
       H  1.81069e+00 -9.31224e-01  1.81453e+00
       H  1.68260e+00 -9.56335e-01 -2.10382e-01
       H  1.89008e+00  2.17388e-01 -1.62121e+00
       H  5.24458e-01 -9.54257e-01 -1.79844e+00
       H  3.13790e+00 -1.39664e+00  8.85233e-01
7
# CELL(abcABC):   14.00143    14.00143    14.00143    90.00000    90.00000    90.00000  Step:       12800  Bead:       5 positions{angstrom}  cell{angstrom}
       O  2.26710e+00 -1.27100e+00  8.94120e-01
       O  1.26264e+00 -6.17670e-01 -1.19061e+00
       H  1.77553e+00 -8.41166e-01  1.59463e+00
       H  1.91494e+00 -1.05263e+00 -3.45832e-01
       H  1.42923e+00  2.47688e-01 -1.61060e+00
       H  3.56910e-01 -9.10272e-01 -1.53722e+00
       H  3.25162e+00 -1.53481e+00  1.07519e+00
7
# CELL(abcABC):   14.00143    14.00143    14.00143    90.00000    90.00000    90.00000  Step:       13200  Bead:       5 positions{angstrom}  cell{angstrom}
       O  2.21422e+00 -1.41425e+00  8.51697e-01
       O  1.30688e+00 -4.05091e-01 -1.18122e+00
       H  1.72633e+00 -1.39686e+00  1.64986e+00
       H  1.92575e+00 -8.57744e-01 -5.31410e-02
       H  1.42777e+00  5.80498e-01 -1.39807e+00
       H  7.21064e-01 -9.09556e-01 -1.75479e+00
       H  3.14171e+00 -1.75346e+00  8.34735e-01
7
# CELL(abcABC):   14.00143    14.00143    14.00143    90.00000    90.00000    90.00000  Step:       13600  Bead:       5 positions{angstrom}  cell{angstrom}
       O  2.25080e+00 -1.40968e+00  8.52519e-01
       O  1.27847e+00 -3.55667e-01 -1.18874e+00
       H  1.94597e+00 -1.29977e+00  1.77001e+00
       H  1.69655e+00 -8.65838e-01 -1.60402e-01
       H  2.93674e-01 -1.41844e-01 -1.33849e+00
       H  1.51584e+00 -9.01371e-01 -2.00071e+00
       H  2.95972e+00 -2.08391e+00  7.59168e-01
7
# CELL(abcABC):   14.00143    14.00143    14.00143    90.00000    90.00000    90.00000  Step:       14000  Bead:       5 positions{angstrom}  cell{angstrom}
       O  2.32960e+00 -1.42090e+00  7.56029e-01
       O  1.18799e+00 -3.02577e-01 -1.02295e+00
       H  1.99384e+00 -2.29515e+00  8.36572e-01
       H  1.89374e+00 -8.19294e-01 -1.14870e-01
       H  1.91045e-01 -4.41169e-01 -1.08844e+00
       H  1.70709e+00 -5.92028e-01 -1.81263e+00
       H  3.35019e+00 -1.62672e+00  7.09373e-01
7
# CELL(abcABC):   14.00143    14.00143    14.00143    90.00000    90.00000    90.00000  Step:       14400  Bead:       5 positions{angstrom}  cell{angstrom}
       O  2.32261e+00 -1.53467e+00  6.29520e-01
       O  1.17915e+00 -2.36736e-01 -8.57799e-01
       H  2.13879e+00 -2.49764e+00  6.09992e-01
       H  1.89607e+00 -9.88137e-01 -2.92607e-01
       H  8.78887e-01 -8.53439e-01 -1.44785e+00
       H  1.54884e+00  7.16512e-01 -1.05955e+00
       H  3.17819e+00 -1.63280e+00  9.19129e-01
7
# CELL(abcABC):   14.00143    14.00143    14.00143    90.00000    90.00000    90.00000  Step:       14800  Bead:       5 positions{angstrom}  cell{angstrom}
       O  2.21937e+00 -1.56841e+00  7.73778e-01
       O  1.27120e+00 -2.62213e-01 -1.08858e+00
       H  2.09684e+00 -1.40605e+00  1.65841e+00
       H  1.73757e+00 -1.03635e+00 -3.60792e-02
       H  7.58094e-01 -4.30627e-01 -1.85748e+00
       H  1.71377e+00  5.60214e-01 -1.25465e+00
       H  2.65647e+00 -2.40464e+00  5.90301e-01
7
# CELL(abcABC):   14.00143    14.00143    14.00143    90.00000    90.00000    90.00000  Step:       15200  Bead:       5 positions{angstrom}  cell{angstrom}
       O  1.99945e+00 -1.72714e+00  7.33744e-01
       O  1.48381e+00 -1.30445e-01 -1.05017e+00
       H  1.55441e+00 -1.54418e+00  1.57377e+00
       H  1.75795e+00 -9.33690e-01 -1.48333e-01
       H  1.58658e+00 -3.91093e-02 -2.00875e+00
       H  1.35047e+00  7.69771e-01 -7.99919e-01
       H  2.18196e+00 -2.62258e+00  7.39486e-01
7
# CELL(abcABC):   14.00143    14.00143    14.00143    90.00000    90.00000    90.00000  Step:       15600  Bead:       5 positions{angstrom}  cell{angstrom}
       O  2.02627e+00 -1.77178e+00  5.85658e-01
       O  1.52224e+00 -2.57459e-02 -8.63983e-01
       H  2.08096e+00 -1.31676e+00  1.51738e+00
       H  1.69347e+00 -9.46507e-01 -1.86187e-01
       H  2.16913e+00  4.78898e-01 -1.46660e+00
       H  4.84344e-01  7.54624e-02 -7.42270e-01
       H  2.18903e+00 -2.72594e+00  4.59460e-01
7
# CELL(abcABC):   14.00143    14.00143    14.00143    90.00000    90.00000    90.00000  Step:       16000  Bead:       5 positions{angstrom}  cell{angstrom}
       O  2.28718e+00 -1.70345e+00  4.80486e-01
       O  1.19065e+00 -6.52578e-02 -7.99237e-01
       H  2.77921e+00 -1.57530e+00  1.26374e+00
       H  1.82280e+00 -9.34091e-01  3.17625e-02
       H  1.58812e+00  7.40430e-01 -8.86499e-01
       H  5.79122e-01 -5.80084e-01 -1.32691e+00
       H  2.55207e+00 -2.70996e+00  1.74130e-01
7
# CELL(abcABC):   14.00143    14.00143    14.00143    90.00000    90.00000    90.00000  Step:       16400  Bead:       5 positions{angstrom}  cell{angstrom}
       O  2.08810e+00 -1.78425e+00  7.16801e-01
       O  1.39079e+00 -8.15198e-02 -1.02278e+00
       H  2.66516e+00 -1.64837e+00  1.45654e+00
       H  1.68666e+00 -7.58731e-01 -3.05884e-01
       H  1.53995e+00  8.53918e-01 -9.13329e-01
       H  9.20163e-01 -5.71362e-01 -1.70580e+00
       H  1.60388e+00 -2.54277e+00  8.71186e-01
7
# CELL(abcABC):   14.00143    14.00143    14.00143    90.00000    90.00000    90.00000  Step:       16800  Bead:       5 positions{angstrom}  cell{angstrom}
       O  1.81980e+00 -1.70006e+00  8.45174e-01
       O  1.58637e+00 -1.64636e-01 -1.13454e+00
       H  2.73403e+00 -1.66442e+00  1.16951e+00
       H  1.79008e+00 -7.65193e-01 -2.44778e-01
       H  1.93603e+00  7.84241e-01 -1.07646e+00
       H  1.54353e+00 -5.15219e-01 -1.90310e+00
       H  1.43601e+00 -2.54969e+00  6.26896e-01
7
# CELL(abcABC):   14.00143    14.00143    14.00143    90.00000    90.00000    90.00000  Step:       17200  Bead:       5 positions{angstrom}  cell{angstrom}
       O  1.99021e+00 -1.62687e+00  7.85165e-01
       O  1.45701e+00 -2.07273e-01 -1.06485e+00
       H  1.60641e+00 -1.29327e+00  1.53549e+00
       H  1.60699e+00 -8.82753e-01 -2.34908e-01
       H  1.84615e+00  5.82138e-01 -8.92755e-01
       H  1.61779e+00 -4.44170e-01 -2.02387e+00
       H  2.82435e+00 -2.03561e+00  8.12794e-01
7
# CELL(abcABC):   14.00143    14.00143    14.00143    90.00000    90.00000    90.00000  Step:       17600  Bead:       5 positions{angstrom}  cell{angstrom}
       O  2.10745e+00 -1.53587e+00  8.11777e-01
       O  1.36692e+00 -2.39908e-01 -1.15683e+00
       H  2.11447e+00 -1.24487e+00  1.74964e+00
       H  1.67825e+00 -7.90582e-01 -2.21340e-01
       H  1.21814e+00  7.08696e-01 -1.38814e+00
       H  1.59969e+00 -7.81659e-01 -1.99366e+00
       H  2.88327e+00 -2.08800e+00  7.10520e-01
7
# CELL(abcABC):   14.00143    14.00143    14.00143    90.00000    90.00000    90.00000  Step:       18000  Bead:       5 positions{angstrom}  cell{angstrom}
       O  2.46163e+00 -1.51893e+00  6.97368e-01
       O  1.01440e+00 -3.60626e-01 -1.01415e+00
       H  2.24654e+00 -1.57297e+00  1.64803e+00
       H  1.76827e+00 -1.02026e+00 -1.62244e-01
       H  7.32102e-02 -3.48414e-02 -9.15774e-01
       H  1.36496e+00 -2.21476e-02 -1.90299e+00
       H  3.24980e+00 -1.95545e+00  3.90625e-01
7
# CELL(abcABC):   14.00143    14.00143    14.00143    90.00000    90.00000    90.00000  Step:       18400  Bead:       5 positions{angstrom}  cell{angstrom}
       O  2.51269e+00 -1.36355e+00  7.55839e-01
       O  1.05354e+00 -5.17340e-01 -1.01413e+00
       H  2.47464e+00 -1.96319e+00  1.61829e+00
       H  1.74653e+00 -8.20346e-01 -5.05221e-02
       H  4.88273e-01  3.36376e-01 -8.06627e-01
       H  1.03325e+00 -5.16116e-01 -1.94965e+00
       H  3.30717e+00 -7.96177e-01  7.83602e-01
7
# CELL(abcABC):   14.00143    14.00143    14.00143    90.00000    90.00000    90.00000  Step:       18800  Bead:       5 positions{angstrom}  cell{angstrom}
       O  2.61607e+00 -1.25613e+00  6.95472e-01
       O  9.50479e-01 -5.44346e-01 -9.30288e-01
       H  2.87248e+00 -2.12963e+00  8.33839e-01
       H  1.68964e+00 -1.02315e+00 -1.35654e-01
       H  3.77060e-01  1.69809e-01 -8.41442e-01
       H  7.73386e-01 -7.94305e-01 -1.96773e+00
       H  2.90405e+00 -5.02760e-01  1.19426e+00
7
# CELL(abcABC):   14.00143    14.00143    14.00143    90.00000    90.00000    90.00000  Step:       19200  Bead:       5 positions{angstrom}  cell{angstrom}
       O  2.37233e+00 -1.44265e+00  6.82364e-01
       O  1.09804e+00 -3.22318e-01 -9.65719e-01
       H  3.34542e+00 -1.34641e+00  4.68337e-01
       H  1.50857e+00 -7.61321e-01 -5.49949e-02
       H  5.17434e-01  3.93121e-01 -1.04639e+00
       H  1.13868e+00 -9.07246e-01 -1.84175e+00
       H  2.08676e+00 -1.72410e+00  1.65626e+00
7
# CELL(abcABC):   14.00143    14.00143    14.00143    90.00000    90.00000    90.00000  Step:       19600  Bead:       5 positions{angstrom}  cell{angstrom}
       O  2.09358e+00 -1.61489e+00  7.15612e-01
       O  1.39697e+00 -1.46088e-01 -1.02381e+00
       H  2.19203e+00 -1.42726e+00  1.71821e+00
       H  1.58770e+00 -7.10807e-01  2.46201e-02
       H  3.79163e-01  9.74205e-03 -9.95060e-01
       H  1.94941e+00  4.13650e-01 -1.66488e+00
       H  2.24460e+00 -2.64095e+00  5.39653e-01
7
# CELL(abcABC):   14.00143    14.00143    14.00143    90.00000    90.00000    90.00000  Step:       20000  Bead:       5 positions{angstrom}  cell{angstrom}
       O  2.07067e+00 -1.81562e+00  5.37882e-01
       O  1.45605e+00 -3.84633e-03 -8.76036e-01
       H  2.34704e+00 -1.57756e+00  1.44451e+00
       H  2.03988e+00 -1.02883e+00 -1.40047e-01
       H  9.80113e-01 -5.22320e-01 -1.73134e+00
       H  9.07641e-01  6.46420e-01 -4.98554e-01
       H  2.42292e+00 -2.63130e+00  6.48243e-02
7
# CELL(abcABC):   14.00143    14.00143    14.00143    90.00000    90.00000    90.00000  Step:       20400  Bead:       5 positions{angstrom}  cell{angstrom}
       O  2.10819e+00 -1.93041e+00  3.90958e-01
       O  1.34580e+00  1.60551e-01 -7.41933e-01
       H  2.81890e+00 -1.89153e+00  8.81608e-01
       H  1.69230e+00 -9.88143e-01 -1.08740e-01
       H  2.05244e+00  3.99396e-01 -1.27030e+00
       H  3.09561e-01  3.30630e-01 -1.08819e+00
       H  1.49953e+00 -2.32597e+00  9.18013e-01
7
# CELL(abcABC):   14.00143    14.00143    14.00143    90.00000    90.00000    90.00000  Step:       20800  Bead:       5 positions{angstrom}  cell{angstrom}
       O  2.14693e+00 -1.93697e+00  2.33653e-01
       O  1.30016e+00  1.36013e-01 -5.77357e-01
       H  3.12933e+00 -1.88237e+00  1.30311e-01
       H  1.63205e+00 -7.83822e-01 -1.41287e-01
       H  1.68474e+00  9.84372e-01 -8.13280e-01
       H  4.15985e-01 -3.65963e-02 -1.24619e+00
       H  1.85336e+00 -2.53473e+00  8.75668e-01
7
# CELL(abcABC):   14.00143    14.00143    14.00143    90.00000    90.00000    90.00000  Step:       21200  Bead:       5 positions{angstrom}  cell{angstrom}
       O  2.14607e+00 -1.93543e+00  2.83613e-01
       O  1.36194e+00  1.17615e-01 -5.62668e-01
       H  2.95880e+00 -2.27013e+00  7.33526e-01
       H  1.78870e+00 -9.59415e-01 -1.34600e-01
       H  1.35324e+00  9.13410e-01  2.57157e-02
       H  9.34786e-01  3.52571e-01 -1.36360e+00
       H  1.57098e+00 -2.75284e+00  3.35176e-01
7
# CELL(abcABC):   14.00143    14.00143    14.00143    90.00000    90.00000    90.00000  Step:       21600  Bead:       5 positions{angstrom}  cell{angstrom}
       O  2.12467e+00 -1.93966e+00  3.52548e-01
       O  1.43219e+00  7.90052e-02 -6.86845e-01
       H  1.66654e+00 -2.21210e+00  1.23776e+00
       H  1.93226e+00 -8.48709e-01 -3.51131e-01
       H  8.85087e-01  6.42801e-01 -1.99607e-01
       H  1.02147e+00  6.50251e-02 -1.59712e+00
       H  2.39068e+00 -2.68813e+00 -1.47135e-01
7
# CELL(abcABC):   14.00143    14.00143    14.00143    90.00000    90.00000    90.00000  Step:       22000  Bead:       5 positions{angstrom}  cell{angstrom}
       O  1.98009e+00 -1.86095e+00  4.95564e-01
       O  1.48840e+00  5.67525e-02 -8.57156e-01
       H  1.39821e+00 -2.51435e+00  1.01981e+00
       H  1.71930e+00 -9.95545e-01  9.18085e-03
       H  9.91177e-01  7.94755e-01 -5.18863e-01
       H  2.00820e+00  6.52524e-01 -1.34981e+00
       H  2.79366e+00 -2.31840e+00  2.44006e-01
7
# CELL(abcABC):   14.00143    14.00143    14.00143    90.00000    90.00000    90.00000  Step:       22400  Bead:       5 positions{angstrom}  cell{angstrom}
       O  1.85504e+00 -2.04487e+00  2.56967e-01
       O  1.67352e+00  2.37229e-01 -6.02890e-01
       H  1.46193e+00 -2.86948e+00 -1.13509e-01
       H  1.60691e+00 -8.63147e-01  6.23780e-02
       H  1.14523e+00  1.06467e+00 -3.35558e-01
       H  2.51427e+00  5.24966e-01 -1.12734e+00
       H  2.06532e+00 -2.26729e+00  1.21507e+00
7
# CELL(abcABC):   14.00143    14.00143    14.00143    90.00000    90.00000    90.00000  Step:       22800  Bead:       5 positions{angstrom}  cell{angstrom}
       O  2.03181e+00 -2.11346e+00 -4.34147e-02
       O  1.55986e+00  2.58555e-01 -2.51664e-01
       H  2.16042e+00 -2.43036e+00 -1.02005e+00
       H  1.54650e+00 -1.04837e+00 -1.01691e-01
       H  1.95517e+00  6.67492e-01  4.75634e-01
       H  1.25964e+00  1.00622e+00 -8.35419e-01
       H  1.53761e+00 -2.80766e+00  5.46672e-01
7
# CELL(abcABC):   14.00143    14.00143    14.00143    90.00000    90.00000    90.00000  Step:       23200  Bead:       5 positions{angstrom}  cell{angstrom}
       O  2.23311e+00 -2.07618e+00 -8.20208e-02
       O  1.33199e+00  2.29929e-01 -1.68716e-01
       H  3.07917e+00 -2.49929e+00  5.66801e-02
       H  1.78267e+00 -1.03122e+00 -2.47176e-01
       H  1.50406e+00  9.80850e-01  5.20387e-01
       H  8.43778e-01  4.84733e-01 -9.38799e-01
       H  1.59511e+00 -2.73599e+00  1.47777e-02
7
# CELL(abcABC):   14.00143    14.00143    14.00143    90.00000    90.00000    90.00000  Step:       23600  Bead:       5 positions{angstrom}  cell{angstrom}
       O  2.33109e+00 -1.91497e+00  1.88945e-01
       O  1.22517e+00  9.74282e-02 -4.81580e-01
       H  3.12185e+00 -2.15554e+00 -2.92639e-01
       H  1.67491e+00 -1.04296e+00 -1.74244e-01
       H  6.75811e-01  5.30904e-01  1.33404e-01
       H  1.43759e+00  5.38355e-01 -1.33188e+00
       H  2.06106e+00 -2.29897e+00  1.01824e+00
7
# CELL(abcABC):   14.00143    14.00143    14.00143    90.00000    90.00000    90.00000  Step:       24000  Bead:       5 positions{angstrom}  cell{angstrom}
       O  2.32646e+00 -1.78761e+00  4.39006e-01
       O  1.19662e+00  1.77187e-02 -6.79475e-01